y,U1_0,U1_1,U1_2,U1Mean_0,U1Mean_1,U1Mean_2,U2_0,U2_1,U2_2,U2Mean_0,U2Mean_1,U2Mean_2
0,7.07148,-0.00363027,0,6.80178,-8.80974e-05,0,0,0,0,0,0,0
0.000100503,7.07155,-0.00362719,0,6.80176,-8.79329e-05,0,1.48654,-3.19091e-06,0,1.63686,1.08522e-05,0
0.000201005,7.07161,-0.00362411,0,6.80175,-8.77684e-05,0,2.97308,-6.38181e-06,0,3.27372,2.17044e-05,0
0.000301508,7.07168,-0.00362103,0,6.80174,-8.76039e-05,0,4.45963,-9.57272e-06,0,4.91058,3.25566e-05,0
0.00040201,7.08522,-0.00361386,0,6.81918,-8.7761e-05,0,5.45352,-1.25299e-05,0,6.01255,3.80255e-05,0
0.000502513,7.11393,-0.00361348,0,6.85626,-8.82432e-05,0,5.89323,-1.54021e-05,0,6.51282,3.74546e-05,0
0.000603015,7.15162,-0.00362081,0,6.90497,-8.89064e-05,0,6.00462,-1.82811e-05,0,6.65661,3.33105e-05,0
0.000703518,7.18932,-0.00362813,0,6.95369,-8.95697e-05,0,6.11601,-2.11601e-05,0,6.80041,2.91664e-05,0
0.00080402,7.22534,-0.00363042,0,7.00021,-9.00969e-05,0,6.22239,-2.37488e-05,0,6.93773,2.53436e-05,0
0.000904523,7.25604,-0.00361667,0,7.03972,-9.0191e-05,0,6.31278,-2.54128e-05,0,7.05444,2.2544e-05,0
0.00100503,7.28673,-0.00360292,0,7.07923,-9.02852e-05,0,6.40318,-2.70768e-05,0,7.17114,1.97443e-05,0
0.00110553,7.31743,-0.00358917,0,7.11875,-9.03794e-05,0,6.49358,-2.87408e-05,0,7.28785,1.69446e-05,0
0.00120603,7.34813,-0.00357542,0,7.15826,-9.04736e-05,0,6.58397,-3.04048e-05,0,7.40455,1.41449e-05,0
0.00130653,7.37787,-0.00357494,0,7.19312,-9.12046e-05,0,6.65669,-3.38825e-05,0,7.49267,1.39122e-05,0
0.00140704,7.40719,-0.00358577,0,7.22583,-9.22504e-05,0,6.72126,-3.92753e-05,0,7.56762,1.49038e-05,0
0.00150754,7.43597,-0.00361129,0,7.25583,-9.36969e-05,0,6.77551,-4.71673e-05,0,7.62586,1.74509e-05,0
0.00160804,7.46475,-0.0036368,0,7.28583,-9.51435e-05,0,6.82975,-5.50594e-05,0,7.6841,1.9998e-05,0
0.00170854,7.49354,-0.00366232,0,7.31582,-9.659e-05,0,6.88399,-6.29515e-05,0,7.74235,2.25451e-05,0
0.00180905,7.52156,-0.00368406,0,7.34501,-9.79892e-05,0,6.93678,-7.11605e-05,0,7.79902,2.51855e-05,0
0.00190955,7.54579,-0.00368706,0,7.37018,-9.91525e-05,0,6.98232,-8.09442e-05,0,7.84793,2.82894e-05,0
0.00201005,7.57003,-0.00369006,0,7.39536,-0.000100316,0,7.02786,-9.07279e-05,0,7.89683,3.13933e-05,0
0.00211055,7.59426,-0.00369306,0,7.42053,-0.000101479,0,7.0734,-0.000100512,0,7.94574,3.44972e-05,0
0.00221106,7.6185,-0.00369606,0,7.4457,-0.000102643,0,7.11895,-0.000110295,0,7.99464,3.76011e-05,0
0.00231156,7.64273,-0.00369906,0,7.47088,-0.000103806,0,7.16449,-0.000120079,0,8.04355,4.0705e-05,0
0.00241206,7.67235,-0.00371552,0,7.50002,-0.000105041,0,7.2137,-0.000120645,0,8.09374,4.23741e-05,0
0.00251256,7.70413,-0.00373737,0,7.53076,-0.000106305,0,7.26438,-0.000117522,0,8.14445,4.34688e-05,0
0.00261307,7.74145,-0.00376867,0,7.56557,-0.000107656,0,7.31882,-0.000108291,0,8.19648,4.31489e-05,0
0.00271357,7.78082,-0.00380345,0,7.60187,-0.000109038,0,7.37463,-9.68125e-05,0,8.249,4.23086e-05,0
0.00281407,7.8202,-0.00383823,0,7.63817,-0.00011042,0,7.43045,-8.53342e-05,0,8.30152,4.14684e-05,0
0.00291457,7.85957,-0.00387301,0,7.67448,-0.000111802,0,7.48626,-7.3856e-05,0,8.35403,4.06282e-05,0
0.00301508,7.89894,-0.00390779,0,7.71078,-0.000113184,0,7.54208,-6.23778e-05,0,8.40655,3.97879e-05,0
0.00311558,7.93691,-0.00394088,0,7.74578,-0.000114634,0,7.59589,-5.12784e-05,0,8.45719,3.89885e-05,0
0.00321608,7.97123,-0.00396956,0,7.77741,-0.000116262,0,7.64448,-4.1164e-05,0,8.50293,3.8295e-05,0
0.00331658,8.00556,-0.00399824,0,7.80903,-0.00011789,0,7.69308,-3.10495e-05,0,8.54868,3.76015e-05,0
0.00341709,8.03989,-0.00402691,0,7.84066,-0.000119517,0,7.74168,-2.09351e-05,0,8.59442,3.6908e-05,0
0.00351759,8.07421,-0.00405559,0,7.87228,-0.000121145,0,7.79027,-1.08207e-05,0,8.64017,3.62146e-05,0
0.00361809,8.10854,-0.00408427,0,7.9039,-0.000122772,0,7.83887,-7.06238e-07,0,8.68592,3.55211e-05,0
0.00371859,8.14286,-0.00411295,0,7.93553,-0.0001244,0,7.88746,9.40819e-06,0,8.73166,3.48276e-05,0
0.0038191,8.17868,-0.00408833,0,7.96632,-0.000125593,0,7.93648,1.46412e-05,0,8.77494,3.46571e-05,0
0.0039196,8.21656,-0.00399037,0,7.99597,-0.000126188,0,7.98607,1.31575e-05,0,8.81481,3.52061e-05,0
0.0040201,8.25444,-0.00389241,0,8.02562,-0.000126783,0,8.03566,1.16738e-05,0,8.85469,3.57552e-05,0
0.0041206,8.29567,-0.00369801,0,8.05345,-0.000126544,0,8.08617,-1.34063e-06,0,8.88911,3.74893e-05,0
0.00422111,8.33717,-0.00349608,0,8.08112,-0.00012624,0,8.13676,-1.52566e-05,0,8.92312,3.9316e-05,0
0.00432161,8.37868,-0.00329414,0,8.1088,-0.000125936,0,8.18734,-2.91726e-05,0,8.95712,4.11427e-05,0
0.00442211,8.42018,-0.0030922,0,8.13648,-0.000125631,0,8.23793,-4.30885e-05,0,8.99112,4.29694e-05,0
0.00452261,8.46168,-0.00289027,0,8.16415,-0.000125327,0,8.28852,-5.70045e-05,0,9.02513,4.47961e-05,0
0.00462312,8.50318,-0.00268833,0,8.19183,-0.000125022,0,8.3391,-7.09205e-05,0,9.05913,4.66228e-05,0
0.00472362,8.54439,-0.00248792,0,8.21932,-0.000124719,0,8.38934,-8.46225e-05,0,9.0929,4.84289e-05,0
0.00482412,8.58187,-0.00230752,0,8.2443,-0.000124434,0,8.43498,-9.55096e-05,0,9.12359,4.99639e-05,0
0.00492462,8.61934,-0.00212712,0,8.26927,-0.000124148,0,8.48062,-0.000106397,0,9.15428,5.1499e-05,0
0.00502513,8.65681,-0.00194672,0,8.29425,-0.000123863,0,8.52626,-0.000117284,0,9.18497,5.3034e-05,0
0.00512563,8.69428,-0.00176632,0,8.31923,-0.000123577,0,8.5719,-0.000128171,0,9.21566,5.4569e-05,0
0.00522613,8.73175,-0.00158592,0,8.34421,-0.000123292,0,8.61754,-0.000139058,0,9.24636,5.6104e-05,0
0.00532663,8.76922,-0.00140552,0,8.36919,-0.000123006,0,8.66318,-0.000149945,0,9.27705,5.76391e-05,0
0.00542714,8.80669,-0.00122512,0,8.39416,-0.000122721,0,8.70883,-0.000160832,0,9.30774,5.91741e-05,0
0.00552764,8.84416,-0.00104473,0,8.41914,-0.000122435,0,8.75447,-0.00017172,0,9.33843,6.07091e-05,0
0.00562814,8.88204,-0.000877294,0,8.44117,-0.000120417,0,8.79907,-0.000175199,0,9.36502,6.21995e-05,0
0.00572864,8.92014,-0.000717201,0,8.46153,-0.000117418,0,8.84308,-0.000174487,0,9.38929,6.36645e-05,0
0.00582915,8.95824,-0.000557109,0,8.4819,-0.000114419,0,8.88709,-0.000173774,0,9.41356,6.51295e-05,0
0.00592965,8.9967,-0.000411021,0,8.49962,-0.000110067,0,8.93017,-0.000162811,0,9.43416,6.65241e-05,0
0.00603015,9.03543,-0.000275394,0,8.51537,-0.000104704,0,8.97254,-0.00014419,0,9.45202,6.78662e-05,0
0.00613065,9.07416,-0.000139768,0,8.53112,-9.93414e-05,0,9.01492,-0.000125568,0,9.46987,6.92082e-05,0
0.00623116,9.11289,-4.14135e-06,0,8.54687,-9.39784e-05,0,9.0573,-0.000106947,0,9.48772,7.05502e-05,0
0.00633166,9.15162,0.000131485,0,8.56262,-8.86154e-05,0,9.09968,-8.83261e-05,0,9.50558,7.18922e-05,0
0.00643216,9.19034,0.000267112,0,8.57837,-8.32524e-05,0,9.14206,-6.9705e-05,0,9.52343,7.32342e-05,0
0.00653266,9.22907,0.000402738,0,8.59411,-7.78894e-05,0,9.18444,-5.10838e-05,0,9.54128,7.45763e-05,0
0.00663317,9.2678,0.000538364,0,8.60986,-7.25264e-05,0,9.22681,-3.24627e-05,0,9.55914,7.59183e-05,0
0.00673367,9.30615,0.000672676,0,8.62546,-6.71952e-05,0,9.26878,-1.4988e-05,0,9.57682,7.72282e-05,0
0.00683417,9.3422,0.000798931,0,8.64011,-6.20588e-05,0,9.30821,-4.53663e-06,0,9.59343,7.83414e-05,0
0.00693467,9.37824,0.000925186,0,8.65476,-5.69225e-05,0,9.34764,5.91474e-06,0,9.61004,7.94545e-05,0
0.00703518,9.41429,0.00105144,0,8.66942,-5.17861e-05,0,9.38708,1.63661e-05,0,9.62666,8.05677e-05,0
0.00713568,9.45034,0.0011777,0,8.68407,-4.66497e-05,0,9.42651,2.68175e-05,0,9.64327,8.16809e-05,0
0.00723618,9.48638,0.00130395,0,8.69872,-4.15134e-05,0,9.46594,3.72689e-05,0,9.65989,8.2794e-05,0
0.00733668,9.52243,0.00143021,0,8.71337,-3.6377e-05,0,9.50537,4.77202e-05,0,9.6765,8.39072e-05,0
0.00743719,9.55848,0.00155646,0,8.72802,-3.12406e-05,0,9.5448,5.81716e-05,0,9.69312,8.50204e-05,0
0.00753769,9.59452,0.00168272,0,8.74268,-2.61043e-05,0,9.58424,6.8623e-05,0,9.70973,8.61335e-05,0
0.00763819,9.63057,0.00180897,0,8.75733,-2.09679e-05,0,9.62367,7.90744e-05,0,9.72634,8.72467e-05,0
0.00773869,9.66622,0.00193003,0,8.77175,-1.58928e-05,0,9.66265,9.0028e-05,0,9.74269,8.83265e-05,0
0.0078392,9.69442,0.00195235,0,8.78178,-1.19814e-05,0,9.69296,0.000110513,0,9.754,8.8773e-05,0
0.0079397,9.72261,0.00197466,0,8.79181,-8.06997e-06,0,9.72328,0.000130998,0,9.76531,8.92195e-05,0
0.0080402,9.75081,0.00199698,0,8.80184,-4.15854e-06,0,9.7536,0.000151483,0,9.77662,8.9666e-05,0
0.0081407,9.77599,0.00198713,0,8.8101,-7.46473e-07,0,9.78045,0.000177822,0,9.78591,8.9827e-05,0
0.00824121,9.79629,0.00192496,0,8.81551,1.85382e-06,0,9.80165,0.000213678,0,9.79192,8.95241e-05,0
0.00834171,9.81658,0.0018628,0,8.82091,4.4541e-06,0,9.82285,0.000249534,0,9.79793,8.92211e-05,0
0.00844221,9.83688,0.00180064,0,8.82632,7.05439e-06,0,9.84405,0.00028539,0,9.80393,8.89182e-05,0
0.00854271,9.85717,0.00173847,0,8.83172,9.65468e-06,0,9.86525,0.000321246,0,9.80994,8.86152e-05,0
0.00864322,9.87747,0.00167631,0,8.83713,1.2255e-05,0,9.88644,0.000357102,0,9.81595,8.83123e-05,0
0.00874372,9.89776,0.00161415,0,8.84253,1.48553e-05,0,9.90764,0.000392958,0,9.82195,8.80093e-05,0
0.00884422,9.91806,0.00155198,0,8.84794,1.74555e-05,0,9.92884,0.000428814,0,9.82796,8.77063e-05,0
0.00894472,9.93835,0.00148982,0,8.85334,2.00558e-05,0,9.95004,0.00046467,0,9.83397,8.74034e-05,0
0.00904523,9.95864,0.00142766,0,8.85875,2.26561e-05,0,9.97124,0.000500526,0,9.83997,8.71004e-05,0
0.00914573,9.97866,0.00136688,0,8.86408,2.52105e-05,0,9.99215,0.000534672,0,9.8459,8.68082e-05,0
0.00924623,9.99801,0.00130948,0,8.86923,2.76527e-05,0,10.0124,0.000564642,0,9.85162,8.6542e-05,0
0.00934673,10.0174,0.00125208,0,8.87438,3.00949e-05,0,10.0326,0.000594612,0,9.85735,8.62759e-05,0
0.00944724,10.0367,0.00119468,0,8.87953,3.2537e-05,0,10.0528,0.000624583,0,9.86308,8.60097e-05,0
0.00954774,10.056,0.00113728,0,8.88468,3.49792e-05,0,10.073,0.000654553,0,9.8688,8.57436e-05,0
0.00964824,10.0754,0.00107989,0,8.88983,3.74214e-05,0,10.0932,0.000684524,0,9.87453,8.54774e-05,0
0.00974874,10.0947,0.00102249,0,8.89498,3.98636e-05,0,10.1134,0.000714494,0,9.88025,8.52113e-05,0
0.00984925,10.1141,0.00096509,0,8.90013,4.23058e-05,0,10.1336,0.000744464,0,9.88598,8.49451e-05,0
0.00994975,10.1334,0.000907692,0,8.90528,4.4748e-05,0,10.1538,0.000774435,0,9.89171,8.4679e-05,0
0.0100503,10.1528,0.000850294,0,8.91043,4.71902e-05,0,10.174,0.000804405,0,9.89743,8.44128e-05,0
0.0101508,10.1721,0.000792896,0,8.91558,4.96324e-05,0,10.1942,0.000834375,0,9.90316,8.41467e-05,0
0.0102513,10.1915,0.000735498,0,8.92073,5.20746e-05,0,10.2144,0.000864346,0,9.90888,8.38805e-05,0
0.0103518,10.2067,0.000698799,0,8.92468,5.38438e-05,0,10.2304,0.000886715,0,9.91328,8.35974e-05,0
0.0104523,10.2192,0.000675757,0,8.92785,5.5169e-05,0,10.2435,0.00090407,0,9.91679,8.3303e-05,0
0.0105528,10.2318,0.000652716,0,8.93102,5.64943e-05,0,10.2567,0.000921425,0,9.92031,8.30086e-05,0
0.0106533,10.2443,0.000629674,0,8.93419,5.78195e-05,0,10.2698,0.00093878,0,9.92382,8.27142e-05,0
0.0107538,10.2544,0.000619277,0,8.93666,5.87735e-05,0,10.2805,0.000950817,0,9.92656,8.23726e-05,0
0.0108543,10.2602,0.000632132,0,8.93785,5.90449e-05,0,10.2866,0.000953076,0,9.92787,8.19443e-05,0
0.0109548,10.2659,0.000644987,0,8.93904,5.93162e-05,0,10.2926,0.000955335,0,9.92917,8.15159e-05,0
0.0110553,10.2716,0.000657841,0,8.94023,5.95876e-05,0,10.2987,0.000957595,0,9.93048,8.10875e-05,0
0.0111558,10.2773,0.000670696,0,8.94142,5.9859e-05,0,10.3048,0.000959854,0,9.93178,8.06591e-05,0
0.0112563,10.2831,0.00068355,0,8.94261,6.01303e-05,0,10.3109,0.000962113,0,9.93309,8.02307e-05,0
0.0113568,10.2888,0.000696405,0,8.9438,6.04017e-05,0,10.317,0.000964372,0,9.93439,7.98023e-05,0
0.0114573,10.2945,0.000709259,0,8.94499,6.06731e-05,0,10.3231,0.000966631,0,9.9357,7.9374e-05,0
0.0115578,10.3002,0.000722114,0,8.94618,6.09445e-05,0,10.3292,0.00096889,0,9.937,7.89456e-05,0
0.0116583,10.3059,0.000734969,0,8.94737,6.12158e-05,0,10.3353,0.000971149,0,9.93831,7.85172e-05,0
0.0117588,10.3117,0.000747823,0,8.94856,6.14872e-05,0,10.3414,0.000973408,0,9.93961,7.80888e-05,0
0.0118593,10.3174,0.000760678,0,8.94974,6.17586e-05,0,10.3474,0.000975667,0,9.94092,7.76604e-05,0
0.0119598,10.323,0.000774289,0,8.95091,6.20448e-05,0,10.3534,0.00097849,0,9.9422,7.72811e-05,0
0.0120603,10.3286,0.000788284,0,8.95205,6.23386e-05,0,10.3593,0.000981597,0,9.94346,7.69265e-05,0
0.0121608,10.3341,0.000802278,0,8.9532,6.26324e-05,0,10.3652,0.000984705,0,9.94473,7.65719e-05,0
0.0122613,10.3397,0.000816273,0,8.95435,6.29262e-05,0,10.3712,0.000987812,0,9.946,7.62174e-05,0
0.0123618,10.3452,0.000830268,0,8.9555,6.32199e-05,0,10.3771,0.000990919,0,9.94727,7.58628e-05,0
0.0124623,10.3508,0.000844262,0,8.95665,6.35137e-05,0,10.383,0.000994027,0,9.94853,7.55082e-05,0
0.0125628,10.3563,0.000858257,0,8.9578,6.38075e-05,0,10.3889,0.000997134,0,9.9498,7.51537e-05,0
0.0126633,10.3619,0.000872251,0,8.95894,6.41013e-05,0,10.3948,0.00100024,0,9.95107,7.47991e-05,0
0.0127638,10.3675,0.000886246,0,8.96009,6.43951e-05,0,10.4007,0.00100335,0,9.95233,7.44445e-05,0
0.0128643,10.373,0.00090024,0,8.96124,6.46888e-05,0,10.4066,0.00100646,0,9.9536,7.409e-05,0
0.0129648,10.3786,0.000914235,0,8.96239,6.49826e-05,0,10.4125,0.00100956,0,9.95487,7.37354e-05,0
0.0130653,10.3841,0.000928229,0,8.96354,6.52764e-05,0,10.4185,0.00101267,0,9.95614,7.33808e-05,0
0.0131658,10.3897,0.000942224,0,8.96469,6.55702e-05,0,10.4244,0.00101578,0,9.9574,7.30263e-05,0
0.0132663,10.3939,0.00095664,0,8.96552,6.57084e-05,0,10.4288,0.00101816,0,9.95834,7.2467e-05,0
0.0133668,10.3973,0.00097131,0,8.96617,6.57532e-05,0,10.4324,0.00102011,0,9.95907,7.17848e-05,0
0.0134673,10.4006,0.00098598,0,8.96682,6.5798e-05,0,10.4361,0.00102205,0,9.9598,7.11025e-05,0
0.0135678,10.404,0.00100065,0,8.96746,6.58429e-05,0,10.4397,0.001024,0,9.96053,7.04203e-05,0
0.0136683,10.4074,0.00101532,0,8.96811,6.58877e-05,0,10.4433,0.00102594,0,9.96127,6.97381e-05,0
0.0137688,10.4088,0.00102864,0,8.96832,6.5691e-05,0,10.4449,0.00102256,0,9.96153,6.87792e-05,0
0.0138693,10.41,0.00104177,0,8.96847,6.54623e-05,0,10.4462,0.00101847,0,9.96173,6.77836e-05,0
0.0139698,10.4111,0.00105491,0,8.96862,6.52336e-05,0,10.4475,0.00101438,0,9.96193,6.6788e-05,0
0.0140704,10.4123,0.00106805,0,8.96877,6.50049e-05,0,10.4488,0.00101029,0,9.96212,6.57925e-05,0
0.0141709,10.4135,0.00108118,0,8.96892,6.47762e-05,0,10.4501,0.0010062,0,9.96232,6.47969e-05,0
0.0142714,10.4147,0.00109432,0,8.96907,6.45475e-05,0,10.4514,0.00100211,0,9.96252,6.38014e-05,0
0.0143719,10.4159,0.00110746,0,8.96922,6.43188e-05,0,10.4527,0.000998026,0,9.96272,6.28058e-05,0
0.0144724,10.417,0.00112059,0,8.96936,6.40901e-05,0,10.454,0.000993936,0,9.96292,6.18102e-05,0
0.0145729,10.4182,0.00113373,0,8.96951,6.38614e-05,0,10.4553,0.000989847,0,9.96312,6.08147e-05,0
0.0146734,10.4194,0.00114687,0,8.96966,6.36327e-05,0,10.4566,0.000985758,0,9.96331,5.98191e-05,0
0.0147739,10.4206,0.00116001,0,8.96981,6.3404e-05,0,10.4579,0.000981669,0,9.96351,5.88235e-05,0
0.0148744,10.4217,0.00117314,0,8.96996,6.31753e-05,0,10.4592,0.00097758,0,9.96371,5.7828e-05,0
0.0149749,10.4229,0.00118628,0,8.97011,6.29466e-05,0,10.4605,0.00097349,0,9.96391,5.68324e-05,0
0.0150754,10.4241,0.00119927,0,8.97026,6.2707e-05,0,10.4618,0.000968309,0,9.96411,5.58419e-05,0
0.0151759,10.4252,0.00121222,0,8.9704,6.24655e-05,0,10.4631,0.000962926,0,9.9643,5.48523e-05,0
0.0152764,10.4264,0.00122518,0,8.97055,6.22239e-05,0,10.4644,0.000957543,0,9.9645,5.38627e-05,0
0.0153769,10.4276,0.00123814,0,8.97069,6.19823e-05,0,10.4657,0.000952159,0,9.96469,5.28731e-05,0
0.0154774,10.4287,0.0012511,0,8.97084,6.17407e-05,0,10.4669,0.000946776,0,9.96489,5.18836e-05,0
0.0155779,10.4299,0.00126406,0,8.97098,6.14991e-05,0,10.4682,0.000941392,0,9.96508,5.0894e-05,0
0.0156784,10.431,0.00127702,0,8.97113,6.12575e-05,0,10.4695,0.000936009,0,9.96528,4.99044e-05,0
0.0157789,10.4322,0.00128997,0,8.97127,6.10159e-05,0,10.4708,0.000930626,0,9.96547,4.89148e-05,0
0.0158794,10.4334,0.00130293,0,8.97141,6.07743e-05,0,10.4721,0.000925242,0,9.96567,4.79252e-05,0
0.0159799,10.4345,0.00131589,0,8.97156,6.05328e-05,0,10.4734,0.000919859,0,9.96586,4.69357e-05,0
0.0160804,10.4357,0.00132885,0,8.9717,6.02912e-05,0,10.4746,0.000914475,0,9.96606,4.59461e-05,0
0.0161809,10.4369,0.00134181,0,8.97185,6.00496e-05,0,10.4759,0.000909092,0,9.96626,4.49565e-05,0
0.0162814,10.438,0.00135477,0,8.97199,5.9808e-05,0,10.4772,0.000903709,0,9.96645,4.39669e-05,0
0.0163819,10.4392,0.00136772,0,8.97214,5.95664e-05,0,10.4785,0.000898325,0,9.96665,4.29773e-05,0
0.0164824,10.4399,0.00137996,0,8.97224,5.91736e-05,0,10.4793,0.000910968,0,9.96677,4.21948e-05,0
0.0165829,10.4406,0.0013921,0,8.97233,5.87625e-05,0,10.48,0.000925779,0,9.96689,4.14372e-05,0
0.0166834,10.4412,0.00140425,0,8.97243,5.83515e-05,0,10.4807,0.00094059,0,9.96701,4.06796e-05,0
0.0167839,10.4419,0.00141639,0,8.97253,5.79405e-05,0,10.4814,0.0009554,0,9.96713,3.9922e-05,0
0.0168844,10.4425,0.00142853,0,8.97262,5.75294e-05,0,10.4821,0.000970211,0,9.96725,3.91644e-05,0
0.0169849,10.4428,0.0014399,0,8.97268,5.69639e-05,0,10.4823,0.00100268,0,9.9673,3.86234e-05,0
0.0170854,10.4429,0.0014511,0,8.97273,5.63644e-05,0,10.4825,0.00103904,0,9.96735,3.81302e-05,0
0.0171859,10.4431,0.00146229,0,8.97277,5.57649e-05,0,10.4826,0.0010754,0,9.96739,3.76369e-05,0
0.0172864,10.4433,0.00147349,0,8.97282,5.51654e-05,0,10.4827,0.00111175,0,9.96743,3.71436e-05,0
0.0173869,10.4434,0.00148469,0,8.97287,5.45659e-05,0,10.4828,0.00114811,0,9.96747,3.66503e-05,0
0.0174874,10.4436,0.00149588,0,8.97292,5.39664e-05,0,10.483,0.00118447,0,9.96751,3.61571e-05,0
0.0175879,10.4437,0.00150708,0,8.97296,5.33669e-05,0,10.4831,0.00122082,0,9.96756,3.56638e-05,0
0.0176884,10.4439,0.00151827,0,8.97301,5.27674e-05,0,10.4832,0.00125718,0,9.9676,3.51705e-05,0
0.0177889,10.4441,0.00152947,0,8.97306,5.21679e-05,0,10.4834,0.00129354,0,9.96764,3.46773e-05,0
0.0178894,10.4442,0.00154067,0,8.97311,5.15684e-05,0,10.4835,0.0013299,0,9.96768,3.4184e-05,0
0.0179899,10.4444,0.00155186,0,8.97315,5.09689e-05,0,10.4836,0.00136625,0,9.96772,3.36907e-05,0
0.0180905,10.4445,0.00156306,0,8.9732,5.03695e-05,0,10.4837,0.00140261,0,9.96777,3.31975e-05,0
0.018191,10.4447,0.00157426,0,8.97325,4.977e-05,0,10.4839,0.00143897,0,9.96781,3.27042e-05,0
0.0182915,10.4449,0.00158545,0,8.9733,4.91705e-05,0,10.484,0.00147533,0,9.96785,3.22109e-05,0
0.018392,10.445,0.00159673,0,8.97335,4.85549e-05,0,10.4841,0.00150994,0,9.96789,3.16268e-05,0
0.0184925,10.4452,0.00160802,0,8.97339,4.79368e-05,0,10.4843,0.00154429,0,9.96793,3.1029e-05,0
0.018593,10.4454,0.00161931,0,8.97344,4.73188e-05,0,10.4844,0.00157864,0,9.96797,3.04311e-05,0
0.0186935,10.4455,0.0016306,0,8.97349,4.67008e-05,0,10.4845,0.00161299,0,9.96802,2.98333e-05,0
0.018794,10.4457,0.00164188,0,8.97354,4.60828e-05,0,10.4847,0.00164734,0,9.96806,2.92354e-05,0
0.0188945,10.4459,0.00165317,0,8.97359,4.54647e-05,0,10.4848,0.0016817,0,9.9681,2.86375e-05,0
0.018995,10.446,0.00166446,0,8.97364,4.48467e-05,0,10.4849,0.00171605,0,9.96814,2.80397e-05,0
0.0190955,10.4462,0.00167575,0,8.97369,4.42287e-05,0,10.485,0.0017504,0,9.96818,2.74418e-05,0
0.019196,10.4464,0.00168704,0,8.97374,4.36106e-05,0,10.4852,0.00178475,0,9.96822,2.6844e-05,0
0.0192965,10.4465,0.00169833,0,8.97379,4.29926e-05,0,10.4853,0.0018191,0,9.96826,2.62461e-05,0
0.019397,10.4467,0.00170962,0,8.97384,4.23746e-05,0,10.4854,0.00185345,0,9.96831,2.56483e-05,0
0.0194975,10.4469,0.00172091,0,8.97389,4.17566e-05,0,10.4856,0.0018878,0,9.96835,2.50504e-05,0
0.019598,10.447,0.0017322,0,8.97393,4.11385e-05,0,10.4857,0.00192215,0,9.96839,2.44526e-05,0
0.0196985,10.4472,0.00174349,0,8.97398,4.05205e-05,0,10.4858,0.0019565,0,9.96843,2.38547e-05,0
0.019799,10.4472,0.00174584,0,8.97402,3.98196e-05,0,10.4859,0.00197269,0,9.96847,2.32517e-05,0
0.0198995,10.4472,0.0017421,0,8.97405,3.90622e-05,0,10.4859,0.00197651,0,9.9685,2.26452e-05,0
0.02,10.4472,0.00173837,0,8.97407,3.83048e-05,0,10.4859,0.00198034,0,9.96853,2.20386e-05,0
