y,U1_0,U1_1,U1_2,U1Mean_0,U1Mean_1,U1Mean_2,U2_0,U2_1,U2_2,U2Mean_0,U2Mean_1,U2Mean_2
0,8.0784,-0.00809872,0,7.68161,0.000290411,0,0,0,0,0,0,0
0.000100503,8.07841,-0.00810505,0,7.68161,0.0002904,0,1.76432,-3.77107e-06,0,1.67355,1.73753e-06,0
0.000201005,8.07842,-0.00811138,0,7.68161,0.000290389,0,3.52865,-7.54214e-06,0,3.3471,3.47505e-06,0
0.000301508,8.07844,-0.00811771,0,7.68161,0.000290377,0,5.29297,-1.13132e-05,0,5.02066,5.21258e-06,0
0.00040201,8.08657,-0.00815933,0,7.69131,0.000296259,0,6.45514,-1.34135e-05,0,6.12783,5.61508e-06,0
0.000502513,8.10383,-0.00824136,0,7.71193,0.000308764,0,6.93993,-1.41467e-05,0,6.59788,4.41728e-06,0
0.000603015,8.1265,-0.00834756,0,7.73902,0.00032519,0,7.02342,-1.42346e-05,0,6.69048,2.23974e-06,0
0.000703518,8.14917,-0.00845375,0,7.7661,0.000341616,0,7.10692,-1.43226e-05,0,6.78309,6.22055e-08,0
0.00080402,8.17083,-0.00855764,0,7.79197,0.000357307,0,7.18666,-1.51946e-05,0,6.87151,-2.01935e-06,0
0.000904523,8.18925,-0.00865419,0,7.81395,0.000370657,0,7.25442,-1.85632e-05,0,6.94665,-3.79528e-06,0
0.00100503,8.20767,-0.00875075,0,7.83593,0.000384008,0,7.32219,-2.19319e-05,0,7.02179,-5.57121e-06,0
0.00110553,8.22609,-0.0088473,0,7.85791,0.000397358,0,7.38996,-2.53005e-05,0,7.09692,-7.34714e-06,0
0.00120603,8.24451,-0.00894385,0,7.87989,0.000410708,0,7.45773,-2.86691e-05,0,7.17206,-9.12307e-06,0
0.00130653,8.26487,-0.00901231,0,7.90337,0.000424698,0,7.51625,-2.85615e-05,0,7.23568,-9.73114e-06,0
0.00140704,8.28613,-0.00907243,0,7.92754,0.000438972,0,7.5705,-2.7149e-05,0,7.294,-9.73344e-06,0
0.00150754,8.30853,-0.00912229,0,7.95259,0.000453607,0,7.61935,-2.4101e-05,0,7.34559,-8.96296e-06,0
0.00160804,8.33094,-0.00917214,0,7.97764,0.000468242,0,7.6682,-2.10529e-05,0,7.39717,-8.19248e-06,0
0.00170854,8.35334,-0.009222,0,8.00268,0.000482877,0,7.71705,-1.80048e-05,0,7.44876,-7.422e-06,0
0.00180905,8.37515,-0.00927189,0,8.02706,0.000497121,0,7.76459,-1.55429e-05,0,7.49896,-6.85522e-06,0
0.00190955,8.39398,-0.00932202,0,8.04809,0.000509417,0,7.8056,-1.59938e-05,0,7.54225,-7.30064e-06,0
0.00201005,8.41281,-0.00937214,0,8.06911,0.000521714,0,7.84661,-1.64448e-05,0,7.58555,-7.74607e-06,0
0.00211055,8.43164,-0.00942226,0,8.09014,0.00053401,0,7.88762,-1.68957e-05,0,7.62884,-8.1915e-06,0
0.00221106,8.45047,-0.00947239,0,8.11117,0.000546307,0,7.92863,-1.73466e-05,0,7.67214,-8.63693e-06,0
0.00231156,8.4693,-0.00952251,0,8.1322,0.000558604,0,7.96964,-1.77976e-05,0,7.71543,-9.08236e-06,0
0.00241206,8.48885,-0.00954307,0,8.15446,0.000568386,0,8.0084,-1.76492e-05,0,7.75691,-9.10188e-06,0
0.00251256,8.50869,-0.00955179,0,8.17722,0.000577163,0,8.04626,-1.72611e-05,0,7.79766,-8.95092e-06,0
0.00261307,8.52929,-0.00953789,0,8.20124,0.000583363,0,8.08183,-1.59864e-05,0,7.83655,-8.26581e-06,0
0.00271357,8.55017,-0.00951566,0,8.22572,0.000588615,0,8.11654,-1.43857e-05,0,7.87476,-7.38424e-06,0
0.00281407,8.57105,-0.00949344,0,8.25021,0.000593868,0,8.15126,-1.27851e-05,0,7.91297,-6.50267e-06,0
0.00291457,8.59192,-0.00947122,0,8.2747,0.00059912,0,8.18597,-1.11844e-05,0,7.95118,-5.6211e-06,0
0.00301508,8.6128,-0.00944899,0,8.29918,0.000604373,0,8.22069,-9.58369e-06,0,7.98939,-4.73953e-06,0
0.00311558,8.63294,-0.00942854,0,8.32279,0.000609434,0,8.25416,-8.30848e-06,0,8.02622,-3.99439e-06,0
0.00321608,8.65114,-0.0094127,0,8.34412,0.000613998,0,8.28439,-7.87965e-06,0,8.0595,-3.60403e-06,0
0.00331658,8.66934,-0.00939686,0,8.36545,0.000618562,0,8.31463,-7.45082e-06,0,8.09277,-3.21368e-06,0
0.00341709,8.68754,-0.00938102,0,8.38678,0.000623126,0,8.34486,-7.022e-06,0,8.12605,-2.82332e-06,0
0.00351759,8.70575,-0.00936518,0,8.4081,0.00062769,0,8.37509,-6.59317e-06,0,8.15932,-2.43297e-06,0
0.00361809,8.72395,-0.00934934,0,8.42943,0.000632254,0,8.40532,-6.16434e-06,0,8.1926,-2.04261e-06,0
0.00371859,8.74215,-0.0093335,0,8.45076,0.000636817,0,8.43556,-5.73552e-06,0,8.22587,-1.65226e-06,0
0.0038191,8.76041,-0.00931011,0,8.47228,0.000640538,0,8.4649,-5.33314e-06,0,8.2583,-1.1934e-06,0
0.0039196,8.77874,-0.00927635,0,8.49405,0.000643097,0,8.49301,-4.96717e-06,0,8.28958,-6.4029e-07,0
0.0040201,8.79707,-0.0092426,0,8.51582,0.000645656,0,8.52113,-4.6012e-06,0,8.32085,-8.71785e-08,0
0.0041206,8.81555,-0.00920072,0,8.53801,0.000646374,0,8.54728,-4.37278e-06,0,8.35027,2.14738e-07,0
0.00422111,8.83404,-0.00915822,0,8.56023,0.000646947,0,8.57327,-4.15512e-06,0,8.37954,4.97014e-07,0
0.00432161,8.85253,-0.00911572,0,8.58244,0.000647521,0,8.59927,-3.93745e-06,0,8.40882,7.7929e-07,0
0.00442211,8.87103,-0.00907321,0,8.60466,0.000648094,0,8.62527,-3.71979e-06,0,8.43809,1.06157e-06,0
0.00452261,8.88952,-0.00903071,0,8.62688,0.000648668,0,8.65126,-3.50212e-06,0,8.46737,1.34384e-06,0
0.00462312,8.90801,-0.0089882,0,8.64909,0.000649241,0,8.67726,-3.28446e-06,0,8.49664,1.62612e-06,0
0.00472362,8.92637,-0.00894625,0,8.67116,0.000649812,0,8.70308,-2.97442e-06,0,8.52571,1.98494e-06,0
0.00482412,8.94307,-0.00891155,0,8.69121,0.000650346,0,8.72653,-1.44895e-06,0,8.55213,3.35105e-06,0
0.00492462,8.95978,-0.00887686,0,8.71126,0.00065088,0,8.74999,7.65208e-08,0,8.57855,4.71715e-06,0
0.00502513,8.97648,-0.00884217,0,8.73132,0.000651413,0,8.77345,1.60199e-06,0,8.60496,6.08326e-06,0
0.00512563,8.99318,-0.00880747,0,8.75137,0.000651947,0,8.7969,3.12746e-06,0,8.63138,7.44936e-06,0
0.00522613,9.00988,-0.00877278,0,8.77142,0.000652481,0,8.82036,4.65293e-06,0,8.65779,8.81546e-06,0
0.00532663,9.02658,-0.00873809,0,8.79147,0.000653015,0,8.84382,6.17841e-06,0,8.68421,1.01816e-05,0
0.00542714,9.04329,-0.00870339,0,8.81152,0.000653549,0,8.86727,7.70388e-06,0,8.71062,1.15477e-05,0
0.00552764,9.05999,-0.0086687,0,8.83158,0.000654082,0,8.89073,9.22935e-06,0,8.73704,1.29138e-05,0
0.00562814,9.07642,-0.00860997,0,8.85154,0.000654014,0,8.9131,9.85028e-06,0,8.76249,1.35181e-05,0
0.00572864,9.09269,-0.00853763,0,8.87146,0.000653605,0,8.93486,9.95928e-06,0,8.7874,1.36912e-05,0
0.00582915,9.10896,-0.00846529,0,8.89138,0.000653195,0,8.95662,1.00683e-05,0,8.81231,1.38643e-05,0
0.00592965,9.125,-0.00838008,0,8.91122,0.00065225,0,8.97741,9.4947e-06,0,8.83636,1.33888e-05,0
0.00603015,9.14086,-0.00828526,0,8.931,0.000650903,0,8.99747,8.41121e-06,0,8.85976,1.24287e-05,0
0.00613065,9.15673,-0.00819044,0,8.95078,0.000649557,0,9.01753,7.32771e-06,0,8.88316,1.14687e-05,0
0.00623116,9.17259,-0.00809562,0,8.97056,0.000648211,0,9.03759,6.24422e-06,0,8.90656,1.05086e-05,0
0.00633166,9.18846,-0.0080008,0,8.99034,0.000646864,0,9.05765,5.16072e-06,0,8.92996,9.54857e-06,0
0.00643216,9.20432,-0.00790597,0,9.01013,0.000645518,0,9.07771,4.07722e-06,0,8.95336,8.58852e-06,0
0.00653266,9.22019,-0.00781115,0,9.02991,0.000644172,0,9.09777,2.99373e-06,0,8.97676,7.62847e-06,0
0.00663317,9.23606,-0.00771633,0,9.04969,0.000642825,0,9.11783,1.91023e-06,0,9.00016,6.66842e-06,0
0.00673367,9.25177,-0.00762329,0,9.06928,0.000641501,0,9.13769,1.26892e-06,0,9.02333,6.073e-06,0
0.00683417,9.26655,-0.00754118,0,9.08769,0.000640312,0,9.15635,3.33634e-06,0,9.0451,7.71121e-06,0
0.00693467,9.28132,-0.00745907,0,9.1061,0.000639123,0,9.175,5.40376e-06,0,9.06686,9.34942e-06,0
0.00703518,9.2961,-0.00737696,0,9.12451,0.000637934,0,9.19366,7.47118e-06,0,9.08863,1.09876e-05,0
0.00713568,9.31087,-0.00729485,0,9.14292,0.000636745,0,9.21232,9.5386e-06,0,9.1104,1.26259e-05,0
0.00723618,9.32565,-0.00721274,0,9.16132,0.000635556,0,9.23098,1.1606e-05,0,9.13217,1.42641e-05,0
0.00733668,9.34042,-0.00713063,0,9.17973,0.000634367,0,9.24964,1.36734e-05,0,9.15393,1.59023e-05,0
0.00743719,9.3552,-0.00704852,0,9.19814,0.000633178,0,9.26829,1.57409e-05,0,9.1757,1.75405e-05,0
0.00753769,9.36998,-0.00696641,0,9.21655,0.000631989,0,9.28695,1.78083e-05,0,9.19747,1.91787e-05,0
0.00763819,9.38475,-0.0068843,0,9.23496,0.0006308,0,9.30561,1.98757e-05,0,9.21924,2.08169e-05,0
0.00773869,9.39949,-0.00680102,0,9.25334,0.000629589,0,9.32419,2.18119e-05,0,9.24094,2.23493e-05,0
0.0078392,9.41355,-0.00669553,0,9.27122,0.000627976,0,9.34136,2.12586e-05,0,9.2614,2.18732e-05,0
0.0079397,9.42762,-0.00659003,0,9.2891,0.000626363,0,9.35853,2.07053e-05,0,9.28185,2.13971e-05,0
0.0080402,9.44168,-0.00648454,0,9.30698,0.00062475,0,9.3757,2.01519e-05,0,9.30231,2.0921e-05,0
0.0081407,9.45547,-0.00637412,0,9.32466,0.000622969,0,9.3923,1.88138e-05,0,9.32227,1.97785e-05,0
0.00824121,9.46883,-0.00625568,0,9.34201,0.000620916,0,9.40797,1.61999e-05,0,9.34142,1.75528e-05,0
0.00834171,9.48219,-0.00613725,0,9.35937,0.000618862,0,9.42365,1.3586e-05,0,9.36056,1.5327e-05,0
0.00844221,9.49555,-0.00601881,0,9.37672,0.000616808,0,9.43932,1.09721e-05,0,9.37971,1.31013e-05,0
0.00854271,9.5089,-0.00590038,0,9.39407,0.000614755,0,9.455,8.35826e-06,0,9.39886,1.08756e-05,0
0.00864322,9.52226,-0.00578194,0,9.41142,0.000612701,0,9.47067,5.74437e-06,0,9.418,8.64981e-06,0
0.00874372,9.53562,-0.00566351,0,9.42878,0.000610648,0,9.48635,3.13049e-06,0,9.43715,6.42407e-06,0
0.00884422,9.54898,-0.00554507,0,9.44613,0.000608594,0,9.50202,5.16607e-07,0,9.4563,4.19833e-06,0
0.00894472,9.56234,-0.00542664,0,9.46348,0.00060654,0,9.5177,-2.09728e-06,0,9.47544,1.97259e-06,0
0.00904523,9.5757,-0.0053082,0,9.48083,0.000604487,0,9.53337,-4.71116e-06,0,9.49459,-2.53154e-07,0
0.00914573,9.58887,-0.00519193,0,9.49795,0.000602463,0,9.54884,-7.04282e-06,0,9.51348,-2.24315e-06,0
0.00924623,9.60161,-0.00508091,0,9.51449,0.000600512,0,9.56378,-8.68551e-06,0,9.53173,-3.65764e-06,0
0.00934673,9.61435,-0.0049699,0,9.53103,0.000598561,0,9.57873,-1.03282e-05,0,9.54998,-5.07213e-06,0
0.00944724,9.62709,-0.00485889,0,9.54757,0.000596611,0,9.59367,-1.19709e-05,0,9.56824,-6.48661e-06,0
0.00954774,9.63983,-0.00474788,0,9.56411,0.00059466,0,9.60862,-1.36136e-05,0,9.58649,-7.9011e-06,0
0.00964824,9.65257,-0.00463687,0,9.58066,0.000592709,0,9.62356,-1.52563e-05,0,9.60475,-9.31558e-06,0
0.00974874,9.6653,-0.00452585,0,9.5972,0.000590758,0,9.63851,-1.6899e-05,0,9.623,-1.07301e-05,0
0.00984925,9.67804,-0.00441484,0,9.61374,0.000588808,0,9.65345,-1.85416e-05,0,9.64125,-1.21446e-05,0
0.00994975,9.69078,-0.00430383,0,9.63028,0.000586857,0,9.6684,-2.01843e-05,0,9.65951,-1.3559e-05,0
0.0100503,9.70352,-0.00419282,0,9.64682,0.000584906,0,9.68334,-2.1827e-05,0,9.67776,-1.49735e-05,0
0.0101508,9.71626,-0.00408181,0,9.66336,0.000582955,0,9.69829,-2.34697e-05,0,9.69601,-1.6388e-05,0
0.0102513,9.72899,-0.00397079,0,9.6799,0.000581004,0,9.71324,-2.51124e-05,0,9.71427,-1.78025e-05,0
0.0103518,9.7412,-0.00387277,0,9.69596,0.000578929,0,9.72734,-2.59566e-05,0,9.73177,-1.85385e-05,0
0.0104523,9.75306,-0.00378332,0,9.71169,0.000576772,0,9.74089,-2.62739e-05,0,9.74878,-1.88269e-05,0
0.0105528,9.76493,-0.00369388,0,9.72742,0.000574614,0,9.75444,-2.65913e-05,0,9.7658,-1.91153e-05,0
0.0106533,9.77679,-0.00360443,0,9.74315,0.000572457,0,9.76798,-2.69086e-05,0,9.78281,-1.94037e-05,0
0.0107538,9.78833,-0.00351786,0,9.7586,0.000570219,0,9.78104,-2.67294e-05,0,9.79938,-1.92741e-05,0
0.0108543,9.79929,-0.00343657,0,9.77352,0.000567835,0,9.7932,-2.5637e-05,0,9.81515,-1.83757e-05,0
0.0109548,9.81025,-0.00335529,0,9.78844,0.00056545,0,9.80535,-2.45446e-05,0,9.83092,-1.74773e-05,0
0.0110553,9.82122,-0.00327401,0,9.80336,0.000563065,0,9.81751,-2.34522e-05,0,9.8467,-1.6579e-05,0
0.0111558,9.83218,-0.00319273,0,9.81828,0.000560681,0,9.82966,-2.23598e-05,0,9.86247,-1.56806e-05,0
0.0112563,9.84314,-0.00311145,0,9.8332,0.000558296,0,9.84182,-2.12674e-05,0,9.87824,-1.47822e-05,0
0.0113568,9.8541,-0.00303016,0,9.84813,0.000555911,0,9.85397,-2.0175e-05,0,9.89401,-1.38839e-05,0
0.0114573,9.86506,-0.00294888,0,9.86305,0.000553527,0,9.86613,-1.90826e-05,0,9.90978,-1.29855e-05,0
0.0115578,9.87602,-0.0028676,0,9.87797,0.000551142,0,9.87828,-1.79902e-05,0,9.92555,-1.20871e-05,0
0.0116583,9.88698,-0.00278632,0,9.89289,0.000548757,0,9.89044,-1.68978e-05,0,9.94132,-1.11888e-05,0
0.0117588,9.89795,-0.00270504,0,9.90781,0.000546373,0,9.90259,-1.58055e-05,0,9.95709,-1.02904e-05,0
0.0118593,9.90891,-0.00262375,0,9.92273,0.000543988,0,9.91475,-1.47131e-05,0,9.97287,-9.39202e-06,0
0.0119598,9.91965,-0.00254182,0,9.93736,0.000541604,0,9.92667,-1.41543e-05,0,9.98833,-8.91776e-06,0
0.0120603,9.93028,-0.00245957,0,9.95185,0.00053922,0,9.93848,-1.38653e-05,0,10.0036,-8.65795e-06,0
0.0121608,9.94092,-0.00237731,0,9.96633,0.000536836,0,9.95029,-1.35763e-05,0,10.019,-8.39814e-06,0
0.0122613,9.95155,-0.00229505,0,9.98081,0.000534452,0,9.96209,-1.32873e-05,0,10.0343,-8.13833e-06,0
0.0123618,9.96218,-0.00221279,0,9.9953,0.000532068,0,9.9739,-1.29983e-05,0,10.0496,-7.87853e-06,0
0.0124623,9.97281,-0.00213053,0,10.0098,0.000529684,0,9.98571,-1.27093e-05,0,10.0649,-7.61872e-06,0
0.0125628,9.98345,-0.00204828,0,10.0243,0.0005273,0,9.99751,-1.24203e-05,0,10.0802,-7.35891e-06,0
0.0126633,9.99408,-0.00196602,0,10.0387,0.000524916,0,10.0093,-1.21313e-05,0,10.0955,-7.0991e-06,0
0.0127638,10.0047,-0.00188376,0,10.0532,0.000522532,0,10.0211,-1.18423e-05,0,10.1109,-6.8393e-06,0
0.0128643,10.0153,-0.0018015,0,10.0677,0.000520149,0,10.0329,-1.15533e-05,0,10.1262,-6.57949e-06,0
0.0129648,10.026,-0.00171924,0,10.0822,0.000517765,0,10.0447,-1.12643e-05,0,10.1415,-6.31968e-06,0
0.0130653,10.0366,-0.00163699,0,10.0967,0.000515381,0,10.0565,-1.09753e-05,0,10.1568,-6.05987e-06,0
0.0131658,10.0472,-0.00155473,0,10.1112,0.000512997,0,10.0684,-1.06863e-05,0,10.1721,-5.80006e-06,0
0.0132663,10.0571,-0.00152285,0,10.1249,0.000510888,0,10.0792,-1.02764e-05,0,10.1865,-5.40908e-06,0
0.0133668,10.0665,-0.00152123,0,10.1382,0.000508945,0,10.0894,-9.79387e-06,0,10.2004,-4.93927e-06,0
0.0134673,10.0759,-0.00151961,0,10.1514,0.000507002,0,10.0996,-9.31134e-06,0,10.2142,-4.46947e-06,0
0.0135678,10.0854,-0.00151799,0,10.1647,0.000505059,0,10.1097,-8.8288e-06,0,10.228,-3.99967e-06,0
0.0136683,10.0948,-0.00151638,0,10.1779,0.000503116,0,10.1199,-8.34627e-06,0,10.2419,-3.52987e-06,0
0.0137688,10.1031,-0.00157485,0,10.1901,0.000501569,0,10.1287,-7.98268e-06,0,10.2544,-3.08151e-06,0
0.0138693,10.1113,-0.00164129,0,10.2022,0.000500075,0,10.1373,-7.63485e-06,0,10.2668,-2.636e-06,0
0.0139698,10.1195,-0.00170773,0,10.2142,0.00049858,0,10.1459,-7.28701e-06,0,10.2792,-2.19048e-06,0
0.0140704,10.1277,-0.00177417,0,10.2262,0.000497086,0,10.1545,-6.93918e-06,0,10.2916,-1.74497e-06,0
0.0141709,10.1359,-0.0018406,0,10.2383,0.000495591,0,10.1631,-6.59134e-06,0,10.304,-1.29945e-06,0
0.0142714,10.144,-0.00190704,0,10.2503,0.000494097,0,10.1717,-6.24351e-06,0,10.3163,-8.53935e-07,0
0.0143719,10.1522,-0.00197348,0,10.2624,0.000492603,0,10.1803,-5.89567e-06,0,10.3287,-4.0842e-07,0
0.0144724,10.1604,-0.00203991,0,10.2744,0.000491108,0,10.1888,-5.54783e-06,0,10.3411,3.70954e-08,0
0.0145729,10.1686,-0.00210635,0,10.2865,0.000489614,0,10.1974,-5.2e-06,0,10.3535,4.82611e-07,0
0.0146734,10.1768,-0.00217279,0,10.2985,0.000488119,0,10.206,-4.85216e-06,0,10.3659,9.28126e-07,0
0.0147739,10.185,-0.00223922,0,10.3105,0.000486625,0,10.2146,-4.50433e-06,0,10.3782,1.37364e-06,0
0.0148744,10.1932,-0.00230566,0,10.3226,0.000485131,0,10.2232,-4.15649e-06,0,10.3906,1.81916e-06,0
0.0149749,10.2013,-0.0023721,0,10.3346,0.000483636,0,10.2318,-3.80866e-06,0,10.403,2.26467e-06,0
0.0150754,10.2094,-0.00243478,0,10.3465,0.000482133,0,10.2403,-3.23564e-06,0,10.4152,2.91487e-06,0
0.0151759,10.2175,-0.00249677,0,10.3584,0.000480629,0,10.2487,-2.62088e-06,0,10.4274,3.60302e-06,0
0.0152764,10.2255,-0.00255876,0,10.3702,0.000479124,0,10.2572,-2.00611e-06,0,10.4396,4.29118e-06,0
0.0153769,10.2335,-0.00262075,0,10.382,0.00047762,0,10.2657,-1.39135e-06,0,10.4518,4.97933e-06,0
0.0154774,10.2416,-0.00268274,0,10.3939,0.000476115,0,10.2741,-7.7658e-07,0,10.464,5.66748e-06,0
0.0155779,10.2496,-0.00274473,0,10.4057,0.000474611,0,10.2826,-1.61814e-07,0,10.4761,6.35563e-06,0
0.0156784,10.2577,-0.00280672,0,10.4176,0.000473106,0,10.291,4.52952e-07,0,10.4883,7.04379e-06,0
0.0157789,10.2657,-0.00286871,0,10.4294,0.000471602,0,10.2995,1.06772e-06,0,10.5005,7.73194e-06,0
0.0158794,10.2738,-0.0029307,0,10.4413,0.000470097,0,10.308,1.68248e-06,0,10.5127,8.42009e-06,0
0.0159799,10.2818,-0.00299269,0,10.4531,0.000468593,0,10.3164,2.29725e-06,0,10.5249,9.10824e-06,0
0.0160804,10.2899,-0.00305468,0,10.465,0.000467088,0,10.3249,2.91202e-06,0,10.5371,9.7964e-06,0
0.0161809,10.2979,-0.00311667,0,10.4768,0.000465584,0,10.3333,3.52678e-06,0,10.5493,1.04845e-05,0
0.0162814,10.306,-0.00317866,0,10.4887,0.000464079,0,10.3418,4.14155e-06,0,10.5615,1.11727e-05,0
0.0163819,10.314,-0.00324065,0,10.5005,0.000462575,0,10.3502,4.75631e-06,0,10.5736,1.18609e-05,0
0.0164824,10.3199,-0.00321847,0,10.5098,0.000455683,0,10.3565,4.79022e-06,0,10.5831,1.19946e-05,0
0.0165829,10.3255,-0.00318618,0,10.5187,0.000448143,0,10.3624,4.75428e-06,0,10.5923,1.20617e-05,0
0.0166834,10.3311,-0.00315389,0,10.5276,0.000440603,0,10.3683,4.71834e-06,0,10.6014,1.21288e-05,0
0.0167839,10.3368,-0.0031216,0,10.5366,0.000433063,0,10.3742,4.6824e-06,0,10.6105,1.21959e-05,0
0.0168844,10.3424,-0.00308931,0,10.5455,0.000425523,0,10.3802,4.64646e-06,0,10.6197,1.2263e-05,0
0.0169849,10.346,-0.00298935,0,10.552,0.000413049,0,10.384,4.23324e-06,0,10.6263,1.19258e-05,0
0.0170854,10.3492,-0.00287449,0,10.558,0.000399488,0,10.3874,3.73697e-06,0,10.6324,1.14996e-05,0
0.0171859,10.3525,-0.00275964,0,10.564,0.000385928,0,10.3908,3.24071e-06,0,10.6385,1.10734e-05,0
0.0172864,10.3557,-0.00264478,0,10.57,0.000372368,0,10.3942,2.74444e-06,0,10.6447,1.06471e-05,0
0.0173869,10.3589,-0.00252992,0,10.576,0.000358808,0,10.3976,2.24817e-06,0,10.6508,1.02209e-05,0
0.0174874,10.3621,-0.00241507,0,10.582,0.000345248,0,10.401,1.75191e-06,0,10.6569,9.79471e-06,0
0.0175879,10.3653,-0.00230021,0,10.588,0.000331688,0,10.4044,1.25564e-06,0,10.663,9.36849e-06,0
0.0176884,10.3685,-0.00218536,0,10.594,0.000318128,0,10.4078,7.59373e-07,0,10.6691,8.94227e-06,0
0.0177889,10.3717,-0.0020705,0,10.6,0.000304568,0,10.4112,2.63106e-07,0,10.6752,8.51605e-06,0
0.0178894,10.3749,-0.00195565,0,10.606,0.000291008,0,10.4146,-2.33161e-07,0,10.6813,8.08983e-06,0
0.0179899,10.3781,-0.00184079,0,10.612,0.000277448,0,10.418,-7.29427e-07,0,10.6874,7.66362e-06,0
0.0180905,10.3814,-0.00172594,0,10.618,0.000263887,0,10.4214,-1.22569e-06,0,10.6935,7.2374e-06,0
0.018191,10.3846,-0.00161108,0,10.624,0.000250327,0,10.4248,-1.72196e-06,0,10.6996,6.81118e-06,0
0.0182915,10.3878,-0.00149623,0,10.6301,0.000236767,0,10.4282,-2.21823e-06,0,10.7057,6.38496e-06,0
0.018392,10.391,-0.00138011,0,10.636,0.000223239,0,10.4316,-2.85335e-06,0,10.7118,5.9329e-06,0
0.0184925,10.3942,-0.00126379,0,10.642,0.000209716,0,10.435,-3.50947e-06,0,10.7178,5.47693e-06,0
0.018593,10.3974,-0.00114748,0,10.648,0.000196192,0,10.4384,-4.16559e-06,0,10.7239,5.02096e-06,0
0.0186935,10.4005,-0.00103117,0,10.6539,0.000182669,0,10.4417,-4.82171e-06,0,10.73,4.565e-06,0
0.018794,10.4037,-0.000914855,0,10.6599,0.000169146,0,10.4451,-5.47783e-06,0,10.7361,4.10903e-06,0
0.0188945,10.4069,-0.000798542,0,10.6659,0.000155623,0,10.4485,-6.13395e-06,0,10.7421,3.65306e-06,0
0.018995,10.4101,-0.000682229,0,10.6719,0.000142099,0,10.4519,-6.79007e-06,0,10.7482,3.19709e-06,0
0.0190955,10.4133,-0.000565916,0,10.6778,0.000128576,0,10.4553,-7.44619e-06,0,10.7543,2.74112e-06,0
0.019196,10.4165,-0.000449603,0,10.6838,0.000115053,0,10.4587,-8.10231e-06,0,10.7604,2.28515e-06,0
0.0192965,10.4197,-0.00033329,0,10.6898,0.000101529,0,10.4621,-8.75843e-06,0,10.7664,1.82919e-06,0
0.019397,10.4229,-0.000216978,0,10.6958,8.80059e-05,0,10.4654,-9.41455e-06,0,10.7725,1.37322e-06,0
0.0194975,10.4261,-0.000100665,0,10.7017,7.44826e-05,0,10.4688,-1.00707e-05,0,10.7786,9.17249e-07,0
0.019598,10.4293,1.5648e-05,0,10.7077,6.09593e-05,0,10.4722,-1.07268e-05,0,10.7847,4.6128e-07,0
0.0196985,10.4325,0.000131961,0,10.7137,4.7436e-05,0,10.4756,-1.13829e-05,0,10.7907,5.31214e-09,0
0.019799,10.4338,0.000242898,0,10.7161,3.42741e-05,0,10.477,-1.18965e-05,0,10.7932,-3.54569e-07,0
0.0198995,10.4338,0.000350178,0,10.7161,2.1358e-05,0,10.477,-1.23131e-05,0,10.7932,-6.49096e-07,0
0.02,10.4338,0.000457458,0,10.7161,8.44196e-06,0,10.477,-1.27297e-05,0,10.7932,-9.43623e-07,0
