y,Theta,ThetaMean,alpha1,k1,k1Mean,k2,k2Mean,v2
0,3.18744,3429,3.23709e-07,0.183251,0.214043,1e-12,1e-12,1e-12
0.000100503,3.18501,3429.07,3.23153e-07,0.364506,0.409937,0.259134,0.286859,0.0117297
0.000201005,3.1823,3429.15,3.22536e-07,0.565788,0.627477,0.531251,0.587146,0.0244903
0.000301508,3.17651,3429.28,3.21782e-07,0.797857,0.876477,0.797862,0.87653,0.0412041
0.00040201,3.16507,3429.48,3.21086e-07,0.978658,1.06576,0.978674,1.06586,0.0610347
0.000502513,3.15363,3429.68,3.2039e-07,1.15946,1.25505,1.15949,1.2552,0.0808652
0.000603015,3.13888,3429.91,3.1991e-07,1.25151,1.34687,1.25154,1.34703,0.0991163
0.000703518,3.11961,3430.2,3.19689e-07,1.24157,1.32904,1.24159,1.32918,0.114041
0.00080402,3.10034,3430.49,3.19469e-07,1.23162,1.31122,1.23164,1.31134,0.128966
0.000904523,3.08106,3430.78,3.19249e-07,1.22168,1.2934,1.22169,1.29349,0.143891
0.00100503,3.05943,3431.14,3.19114e-07,1.19249,1.25967,1.1925,1.25975,0.15424
0.00110553,3.0375,3431.51,3.18986e-07,1.16347,1.2268,1.16347,1.22687,0.163759
0.00120603,3.01558,3431.88,3.18858e-07,1.13445,1.19393,1.13445,1.19399,0.173278
0.00130653,2.99365,3432.25,3.18729e-07,1.10543,1.16106,1.10542,1.16111,0.182797
0.00140704,2.97138,3432.67,3.18619e-07,1.08029,1.1342,1.08028,1.13424,0.189696
0.00150754,2.94912,3433.11,3.18515e-07,1.05728,1.11023,1.05728,1.11027,0.195577
0.00160804,2.92686,3433.55,3.18411e-07,1.03428,1.08627,1.03427,1.08631,0.201459
0.00170854,2.9046,3433.99,3.18307e-07,1.01127,1.06231,1.01127,1.06234,0.207341
0.00180905,2.88222,3434.44,3.18203e-07,0.988468,1.03864,0.988462,1.03867,0.213123
0.00190955,2.86081,3434.92,3.18115e-07,0.971115,1.02169,0.97111,1.02172,0.216855
0.00201005,2.83946,3435.42,3.18028e-07,0.954519,1.00567,0.954514,1.00569,0.220293
0.00211055,2.81811,3435.92,3.17941e-07,0.937924,0.989647,0.937918,0.989671,0.223732
0.00221106,2.79677,3436.41,3.17854e-07,0.921328,0.973626,0.921323,0.973649,0.22717
0.00231156,2.77542,3436.91,3.17767e-07,0.904733,0.957605,0.904727,0.957626,0.230608
0.00241206,2.75454,3437.42,3.17685e-07,0.889847,0.943599,0.889842,0.943618,0.233418
0.00251256,2.73476,3437.96,3.1761e-07,0.877843,0.932906,0.877837,0.932924,0.235105
0.00261307,2.71498,3438.51,3.17536e-07,0.865838,0.922213,0.865832,0.922229,0.236792
0.00271357,2.69519,3439.05,3.17461e-07,0.853833,0.91152,0.853827,0.911535,0.238479
0.00281407,2.67541,3439.59,3.17386e-07,0.841828,0.900827,0.841822,0.900841,0.240167
0.00291457,2.65563,3440.13,3.17311e-07,0.829824,0.890134,0.829817,0.890147,0.241854
0.00301508,2.63579,3440.68,3.17237e-07,0.818061,0.879746,0.818055,0.879758,0.243406
0.00311558,2.61779,3441.23,3.1717e-07,0.808834,0.872116,0.808828,0.872127,0.243888
0.00321608,2.5999,3441.8,3.17104e-07,0.7999,0.864836,0.799894,0.864846,0.244155
0.00331658,2.582,3442.37,3.17037e-07,0.790966,0.857557,0.79096,0.857566,0.244422
0.00341709,2.5641,3442.93,3.1697e-07,0.782032,0.850277,0.782026,0.850286,0.244689
0.00351759,2.54621,3443.5,3.16904e-07,0.773098,0.842998,0.773092,0.843006,0.244956
0.00361809,2.52831,3444.07,3.16837e-07,0.764164,0.835719,0.764158,0.835725,0.245223
0.00371859,2.51041,3444.63,3.16771e-07,0.75523,0.828439,0.755224,0.828445,0.245491
0.0038191,2.49371,3445.2,3.16707e-07,0.747623,0.822603,0.747616,0.822608,0.245084
0.0039196,2.47783,3445.78,3.16646e-07,0.740716,0.817516,0.740709,0.81752,0.244398
0.0040201,2.46195,3446.35,3.16585e-07,0.733809,0.812429,0.733802,0.812433,0.243712
0.0041206,2.44607,3446.92,3.16523e-07,0.726902,0.807343,0.726895,0.807346,0.243026
0.00422111,2.43019,3447.49,3.16462e-07,0.719995,0.802256,0.719987,0.802258,0.242339
0.00432161,2.41431,3448.07,3.164e-07,0.713087,0.797169,0.71308,0.797171,0.241653
0.00442211,2.39843,3448.64,3.16339e-07,0.70618,0.792083,0.706173,0.792084,0.240967
0.00452261,2.38255,3449.21,3.16277e-07,0.699273,0.786996,0.699266,0.786997,0.24028
0.00462312,2.3672,3449.79,3.16217e-07,0.692809,0.78239,0.692801,0.78239,0.239417
0.00472362,2.35332,3450.34,3.16159e-07,0.687242,0.778706,0.687234,0.778705,0.238333
0.00482412,2.33947,3450.9,3.161e-07,0.681704,0.775059,0.681696,0.775058,0.237235
0.00492462,2.32563,3451.45,3.16042e-07,0.676166,0.771413,0.676158,0.771411,0.236136
0.00502513,2.31179,3452.01,3.15984e-07,0.670629,0.767766,0.67062,0.767764,0.235038
0.00512563,2.29795,3452.56,3.15926e-07,0.665091,0.76412,0.665083,0.764117,0.23394
0.00522613,2.28411,3453.12,3.15867e-07,0.659553,0.760474,0.659545,0.76047,0.232842
0.00532663,2.27027,3453.67,3.15809e-07,0.654016,0.756827,0.654007,0.756823,0.231744
0.00542714,2.25643,3454.23,3.15751e-07,0.648478,0.753181,0.648469,0.753176,0.230646
0.00552764,2.24267,3454.79,3.15693e-07,0.643002,0.749615,0.642993,0.74961,0.229518
0.00562814,2.23032,3455.31,3.15636e-07,0.638218,0.746722,0.638209,0.746716,0.228307
0.00572864,2.21847,3455.82,3.1558e-07,0.633648,0.744051,0.633639,0.744045,0.227071
0.00582915,2.20661,3456.34,3.15525e-07,0.629078,0.74138,0.629069,0.741373,0.225835
0.00592965,2.19476,3456.85,3.15469e-07,0.624508,0.738709,0.624498,0.738702,0.224599
0.00603015,2.18291,3457.36,3.15413e-07,0.619938,0.736038,0.619928,0.73603,0.223363
0.00613065,2.17106,3457.88,3.15357e-07,0.615367,0.733366,0.615358,0.733359,0.222127
0.00623116,2.15921,3458.39,3.15301e-07,0.610797,0.730695,0.610787,0.730687,0.220891
0.00633166,2.14736,3458.9,3.15245e-07,0.606227,0.728024,0.606217,0.728016,0.219655
0.00643216,2.13551,3459.41,3.15189e-07,0.601657,0.725353,0.601647,0.725344,0.218419
0.00653266,2.12366,3459.93,3.15133e-07,0.597087,0.722682,0.597076,0.722672,0.217183
0.00663317,2.1123,3460.43,3.15077e-07,0.592727,0.720231,0.592716,0.720221,0.215921
0.00673367,2.10219,3460.88,3.15024e-07,0.58884,0.71819,0.588829,0.718179,0.214686
0.00683417,2.09224,3461.32,3.1497e-07,0.585005,0.716204,0.584994,0.716194,0.213447
0.00693467,2.08229,3461.77,3.14916e-07,0.58117,0.714219,0.581159,0.714208,0.212207
0.00703518,2.07233,3462.21,3.14862e-07,0.577335,0.712234,0.577324,0.712222,0.210968
0.00713568,2.06238,3462.65,3.14808e-07,0.5735,0.710249,0.573489,0.710237,0.209728
0.00723618,2.05243,3463.1,3.14755e-07,0.569665,0.708263,0.569654,0.708251,0.208489
0.00733668,2.04247,3463.54,3.14701e-07,0.56583,0.706278,0.565818,0.706266,0.20725
0.00743719,2.03252,3463.99,3.14647e-07,0.561995,0.704293,0.561983,0.70428,0.20601
0.00753769,2.02257,3464.43,3.14593e-07,0.55816,0.702308,0.558148,0.702294,0.204771
0.00763819,2.01261,3464.87,3.14539e-07,0.554326,0.700322,0.554313,0.700309,0.203531
0.00773869,2.00266,3465.32,3.14486e-07,0.550491,0.698337,0.550478,0.698323,0.202292
0.0078392,1.99343,3465.73,3.14432e-07,0.54691,0.696582,0.546897,0.696568,0.201065
0.0079397,1.98518,3466.09,3.14381e-07,0.543663,0.695079,0.54365,0.695064,0.199896
0.0080402,1.977,3466.44,3.1433e-07,0.540439,0.693595,0.540425,0.69358,0.198728
0.0081407,1.96882,3466.79,3.14279e-07,0.537214,0.692111,0.537201,0.692096,0.197561
0.00824121,1.96064,3467.14,3.14227e-07,0.53399,0.690628,0.533976,0.690612,0.196394
0.00834171,1.95246,3467.49,3.14176e-07,0.530766,0.689144,0.530752,0.689128,0.195226
0.00844221,1.94428,3467.85,3.14125e-07,0.527541,0.687661,0.527527,0.687644,0.194059
0.00854271,1.9361,3468.2,3.14074e-07,0.524317,0.686177,0.524302,0.68616,0.192892
0.00864322,1.92792,3468.55,3.14022e-07,0.521092,0.684693,0.521078,0.684677,0.191725
0.00874372,1.91974,3468.9,3.13971e-07,0.517868,0.68321,0.517853,0.683193,0.190557
0.00884422,1.91157,3469.25,3.1392e-07,0.514643,0.681726,0.514629,0.681709,0.18939
0.00894472,1.90339,3469.6,3.13869e-07,0.511419,0.680242,0.511404,0.680225,0.188223
0.00904523,1.89521,3469.96,3.13817e-07,0.508195,0.678759,0.508179,0.678741,0.187055
0.00914573,1.88771,3470.27,3.13767e-07,0.505193,0.677449,0.505178,0.677431,0.185924
0.00924623,1.88103,3470.53,3.13719e-07,0.502479,0.676319,0.502463,0.6763,0.184868
0.00934673,1.87448,3470.79,3.13671e-07,0.499804,0.675215,0.499788,0.675197,0.183822
0.00944724,1.86793,3471.05,3.13624e-07,0.49713,0.674112,0.497114,0.674093,0.182776
0.00954774,1.86138,3471.31,3.13576e-07,0.494456,0.673009,0.494439,0.67299,0.181729
0.00964824,1.85483,3471.57,3.13528e-07,0.491781,0.671906,0.491765,0.671887,0.180683
0.00974874,1.84828,3471.83,3.1348e-07,0.489107,0.670803,0.48909,0.670783,0.179636
0.00984925,1.84173,3472.09,3.13433e-07,0.486433,0.6697,0.486416,0.66968,0.17859
0.00994975,1.83517,3472.35,3.13385e-07,0.483758,0.668597,0.483741,0.668577,0.177543
0.0100503,1.82862,3472.61,3.13337e-07,0.481084,0.667494,0.481066,0.667473,0.176497
0.0101508,1.82207,3472.87,3.13289e-07,0.478409,0.66639,0.478392,0.66637,0.17545
0.0102513,1.81552,3473.13,3.13242e-07,0.475735,0.665287,0.475717,0.665266,0.174404
0.0103518,1.80897,3473.39,3.13194e-07,0.473061,0.664184,0.473043,0.664163,0.173357
0.0104523,1.80242,3473.65,3.13146e-07,0.470386,0.663081,0.470368,0.66306,0.172311
0.0105528,1.79633,3473.89,3.13099e-07,0.467868,0.662081,0.46785,0.662059,0.171302
0.0106533,1.79096,3474.09,3.13055e-07,0.465615,0.661221,0.465596,0.661199,0.170378
0.0107538,1.78587,3474.28,3.13012e-07,0.463464,0.660415,0.463445,0.660393,0.169486
0.0108543,1.78078,3474.46,3.12969e-07,0.461312,0.659609,0.461293,0.659587,0.168594
0.0109548,1.77568,3474.65,3.12926e-07,0.459161,0.658803,0.459142,0.658781,0.167701
0.0110553,1.77059,3474.84,3.12883e-07,0.45701,0.657998,0.45699,0.657975,0.166809
0.0111558,1.7655,3475.03,3.1284e-07,0.454858,0.657192,0.454839,0.657169,0.165916
0.0112563,1.76041,3475.21,3.12797e-07,0.452707,0.656386,0.452687,0.656363,0.165024
0.0113568,1.75531,3475.4,3.12754e-07,0.450556,0.65558,0.450536,0.655557,0.164132
0.0114573,1.75022,3475.59,3.12711e-07,0.448404,0.654774,0.448384,0.654751,0.163239
0.0115578,1.74513,3475.78,3.12668e-07,0.446253,0.653969,0.446233,0.653945,0.162347
0.0116583,1.74003,3475.96,3.12625e-07,0.444102,0.653163,0.444081,0.653139,0.161455
0.0117588,1.73494,3476.15,3.12582e-07,0.44195,0.652357,0.441929,0.652333,0.160562
0.0118593,1.72985,3476.34,3.12539e-07,0.439799,0.651551,0.439778,0.651527,0.15967
0.0119598,1.72475,3476.53,3.12496e-07,0.437648,0.650745,0.437626,0.650721,0.158778
0.0120603,1.71989,3476.7,3.12454e-07,0.435581,0.649985,0.43556,0.64996,0.157912
0.0121608,1.71558,3476.85,3.12414e-07,0.433733,0.649329,0.433711,0.649304,0.15712
0.0122613,1.71175,3476.99,3.12378e-07,0.432091,0.648762,0.432069,0.648737,0.156403
0.0123618,1.70792,3477.12,3.12342e-07,0.430449,0.648194,0.430427,0.648169,0.155685
0.0124623,1.70409,3477.25,3.12305e-07,0.428807,0.647627,0.428785,0.647602,0.154968
0.0125628,1.70026,3477.38,3.12269e-07,0.427165,0.647059,0.427142,0.647034,0.15425
0.0126633,1.69643,3477.52,3.12233e-07,0.425523,0.646492,0.4255,0.646467,0.153533
0.0127638,1.6926,3477.65,3.12197e-07,0.423881,0.645925,0.423858,0.645899,0.152816
0.0128643,1.68877,3477.78,3.1216e-07,0.422239,0.645357,0.422216,0.645331,0.152098
0.0129648,1.68494,3477.91,3.12124e-07,0.420597,0.64479,0.420574,0.644764,0.151381
0.0130653,1.68111,3478.05,3.12088e-07,0.418955,0.644222,0.418932,0.644196,0.150663
0.0131658,1.67728,3478.18,3.12051e-07,0.417313,0.643655,0.417289,0.643629,0.149946
0.0132663,1.67345,3478.31,3.12015e-07,0.415671,0.643087,0.415647,0.643061,0.149228
0.0133668,1.66962,3478.44,3.11979e-07,0.414029,0.64252,0.414005,0.642493,0.148511
0.0134673,1.66579,3478.57,3.11943e-07,0.412387,0.641953,0.412363,0.641926,0.147793
0.0135678,1.66196,3478.71,3.11906e-07,0.410745,0.641385,0.410721,0.641358,0.147076
0.0136683,1.65817,3478.84,3.1187e-07,0.409119,0.640825,0.409094,0.640798,0.146364
0.0137688,1.6549,3478.95,3.11838e-07,0.407722,0.640362,0.407697,0.640335,0.145735
0.0138693,1.65207,3479.04,3.11809e-07,0.406509,0.639968,0.406485,0.639941,0.145182
0.0139698,1.64934,3479.13,3.11781e-07,0.405345,0.639592,0.40532,0.639565,0.144648
0.0140704,1.64662,3479.22,3.11753e-07,0.40418,0.639217,0.404155,0.639189,0.144115
0.0141709,1.6439,3479.31,3.11725e-07,0.403015,0.638841,0.40299,0.638814,0.143581
0.0142714,1.64117,3479.4,3.11697e-07,0.401851,0.638466,0.401825,0.638438,0.143047
0.0143719,1.63845,3479.49,3.11669e-07,0.400686,0.63809,0.400661,0.638063,0.142514
0.0144724,1.63573,3479.58,3.11641e-07,0.399521,0.637715,0.399496,0.637687,0.14198
0.0145729,1.633,3479.67,3.11614e-07,0.398357,0.637339,0.398331,0.637311,0.141446
0.0146734,1.63028,3479.76,3.11586e-07,0.397192,0.636964,0.397166,0.636936,0.140913
0.0147739,1.62756,3479.85,3.11558e-07,0.396027,0.636588,0.396001,0.63656,0.140379
0.0148744,1.62483,3479.94,3.1153e-07,0.394862,0.636213,0.394836,0.636184,0.139846
0.0149749,1.62211,3480.03,3.11502e-07,0.393698,0.635837,0.393672,0.635809,0.139312
0.0150754,1.61939,3480.12,3.11474e-07,0.392533,0.635462,0.392507,0.635433,0.138778
0.0151759,1.61666,3480.21,3.11446e-07,0.391368,0.635086,0.391342,0.635057,0.138245
0.0152764,1.61394,3480.3,3.11418e-07,0.390204,0.63471,0.390177,0.634682,0.137711
0.0153769,1.61122,3480.39,3.1139e-07,0.389039,0.634335,0.389012,0.634306,0.137177
0.0154774,1.60896,3480.46,3.11366e-07,0.388073,0.634035,0.388046,0.634006,0.136725
0.0155779,1.60703,3480.53,3.11345e-07,0.387248,0.633781,0.387221,0.633752,0.136335
0.0156784,1.6053,3480.58,3.11326e-07,0.386508,0.633556,0.386481,0.633527,0.135985
0.0157789,1.60357,3480.64,3.11307e-07,0.385769,0.633331,0.385742,0.633302,0.135634
0.0158794,1.60185,3480.69,3.11288e-07,0.38503,0.633106,0.385002,0.633077,0.135283
0.0159799,1.60012,3480.75,3.11269e-07,0.38429,0.632881,0.384263,0.632852,0.134933
0.0160804,1.59839,3480.81,3.1125e-07,0.383551,0.632656,0.383524,0.632627,0.134582
0.0161809,1.59667,3480.86,3.11231e-07,0.382812,0.632431,0.382784,0.632402,0.134231
0.0162814,1.59494,3480.92,3.11212e-07,0.382072,0.632206,0.382045,0.632177,0.133881
0.0163819,1.59321,3480.97,3.11193e-07,0.381333,0.631981,0.381305,0.631952,0.13353
0.0164824,1.59149,3481.03,3.11174e-07,0.380594,0.631756,0.380566,0.631726,0.133179
0.0165829,1.58976,3481.09,3.11155e-07,0.379854,0.631531,0.379827,0.631501,0.132829
0.0166834,1.58803,3481.14,3.11136e-07,0.379115,0.631306,0.379087,0.631276,0.132478
0.0167839,1.58631,3481.2,3.11117e-07,0.378376,0.631081,0.378348,0.631051,0.132127
0.0168844,1.58458,3481.25,3.11098e-07,0.377636,0.630856,0.377608,0.630826,0.131777
0.0169849,1.58285,3481.31,3.11079e-07,0.376897,0.630631,0.376869,0.630601,0.131426
0.0170854,1.58113,3481.37,3.1106e-07,0.376158,0.630406,0.376129,0.630376,0.131075
0.0171859,1.57944,3481.42,3.11041e-07,0.375438,0.630187,0.375409,0.630157,0.130733
0.0172864,1.57818,3481.46,3.11027e-07,0.374897,0.630027,0.374868,0.629997,0.130472
0.0173869,1.57723,3481.49,3.11016e-07,0.374487,0.629906,0.374459,0.629876,0.130274
0.0174874,1.57639,3481.52,3.11006e-07,0.37413,0.629801,0.374101,0.629771,0.130101
0.0175879,1.57556,3481.55,3.10996e-07,0.373772,0.629696,0.373744,0.629666,0.129928
0.0176884,1.57473,3481.58,3.10987e-07,0.373415,0.629591,0.373386,0.629561,0.129755
0.0177889,1.5739,3481.61,3.10977e-07,0.373057,0.629486,0.373029,0.629455,0.129582
0.0178894,1.57306,3481.63,3.10967e-07,0.3727,0.629381,0.372671,0.62935,0.129409
0.0179899,1.57223,3481.66,3.10958e-07,0.372343,0.629275,0.372314,0.629245,0.129235
0.0180905,1.5714,3481.69,3.10948e-07,0.371985,0.62917,0.371956,0.62914,0.129062
0.018191,1.57056,3481.72,3.10938e-07,0.371628,0.629065,0.371599,0.629035,0.128889
0.0182915,1.56973,3481.75,3.10929e-07,0.37127,0.62896,0.371242,0.62893,0.128716
0.018392,1.5689,3481.77,3.10919e-07,0.370913,0.628855,0.370884,0.628824,0.128543
0.0184925,1.56806,3481.8,3.10909e-07,0.370556,0.62875,0.370527,0.628719,0.12837
0.018593,1.56723,3481.83,3.109e-07,0.370198,0.628645,0.370169,0.628614,0.128197
0.0186935,1.5664,3481.86,3.1089e-07,0.369841,0.628539,0.369812,0.628509,0.128024
0.018794,1.56557,3481.89,3.1088e-07,0.369483,0.628434,0.369454,0.628404,0.127851
0.0188945,1.56473,3481.91,3.10871e-07,0.369126,0.628329,0.369097,0.628299,0.127677
0.018995,1.5639,3481.94,3.10861e-07,0.368769,0.628224,0.368739,0.628193,0.127504
0.0190955,1.56344,3481.96,3.10856e-07,0.368572,0.628167,0.368542,0.628136,0.127408
0.019196,1.56323,3481.97,3.10853e-07,0.36848,0.62814,0.36845,0.62811,0.127363
0.0192965,1.56323,3481.97,3.10853e-07,0.36848,0.62814,0.36845,0.62811,0.127363
0.019397,1.56323,3481.97,3.10853e-07,0.36848,0.62814,0.36845,0.62811,0.127363
0.0194975,1.56323,3481.97,3.10853e-07,0.36848,0.62814,0.36845,0.62811,0.127363
0.019598,1.56322,3481.98,3.10852e-07,0.36848,0.62814,0.36845,0.62811,0.127363
0.0196985,1.56322,3481.98,3.10852e-07,0.36848,0.62814,0.36845,0.628109,0.127363
0.019799,1.56322,3481.98,3.10852e-07,0.36848,0.62814,0.36845,0.628109,0.127363
0.0198995,1.56322,3481.98,3.10852e-07,0.36848,0.62814,0.36845,0.628109,0.127363
0.02,1.56322,3481.98,3.10852e-07,0.36848,0.62814,0.36845,0.628109,0.127363
