y,Theta,ThetaMean,alpha1,k1,k1Mean,k2,k2Mean,v2
0,1.05692,0.921086,1.07448e-06,0.179275,0.203677,1e-12,1e-12,1e-12
0.000100503,1.05822,0.920464,1.07999e-06,0.36162,0.393984,0.258538,0.276897,0.0119165
0.000201005,1.05967,0.919772,1.08611e-06,0.564112,0.605318,0.530331,0.566997,0.024882
0.000301508,1.05918,0.915903,1.09379e-06,0.797625,0.843753,0.797634,0.843874,0.0418523
0.00040201,1.0532,0.904918,1.10146e-06,0.979679,1.01596,0.979694,1.01614,0.0619506
0.000502513,1.04722,0.893933,1.10913e-06,1.16173,1.18817,1.16175,1.1884,0.082049
0.000603015,1.03691,0.878207,1.1155e-06,1.2542,1.26163,1.25423,1.26188,0.100483
0.000703518,1.02085,0.856398,1.12122e-06,1.24298,1.2263,1.243,1.22654,0.115409
0.00080402,1.0048,0.834588,1.12694e-06,1.23175,1.19096,1.23177,1.1912,0.130336
0.000904523,0.988747,0.812779,1.13266e-06,1.22053,1.15563,1.22054,1.15586,0.145263
0.00100503,0.970035,0.789081,1.1394e-06,1.1885,1.11027,1.18852,1.11048,0.155422
0.00110553,0.951016,0.765381,1.14619e-06,1.15654,1.06689,1.15655,1.06709,0.164732
0.00120603,0.931997,0.741681,1.15298e-06,1.12457,1.02351,1.12458,1.0237,0.174042
0.00130653,0.912978,0.717981,1.15977e-06,1.0926,0.980128,1.09261,0.980311,0.183352
0.00140704,0.893625,0.695342,1.1666e-06,1.06445,0.946207,1.06446,0.946382,0.190008
0.00150754,0.874315,0.673477,1.1735e-06,1.0385,0.916477,1.03851,0.916645,0.195643
0.00160804,0.855005,0.651611,1.18039e-06,1.01254,0.886747,1.01255,0.886908,0.201279
0.00170854,0.835695,0.629745,1.18729e-06,0.986582,0.857017,0.986596,0.857171,0.206915
0.00180905,0.816294,0.607885,1.19423e-06,0.960825,0.827712,0.96084,0.827859,0.21245
0.00190955,0.798016,0.589044,1.20117e-06,0.940935,0.807492,0.940951,0.807633,0.215962
0.00201005,0.779869,0.570697,1.20819e-06,0.921884,0.788509,0.921901,0.788646,0.219186
0.00211055,0.761722,0.552351,1.21521e-06,0.902833,0.769526,0.902851,0.769658,0.22241
0.00221106,0.743575,0.534004,1.22223e-06,0.883781,0.750544,0.883801,0.75067,0.225635
0.00231156,0.725428,0.515657,1.22925e-06,0.86473,0.731561,0.86475,0.731683,0.228859
0.00241206,0.707877,0.498612,1.23626e-06,0.847598,0.715227,0.847619,0.715345,0.23146
0.00251256,0.691727,0.484212,1.24325e-06,0.833787,0.703204,0.833808,0.703317,0.23288
0.00261307,0.675578,0.469813,1.25024e-06,0.819975,0.69118,0.819998,0.69129,0.2343
0.00271357,0.659428,0.455413,1.25722e-06,0.806164,0.679156,0.806187,0.679263,0.23572
0.00281407,0.643278,0.441013,1.26421e-06,0.792353,0.667133,0.792376,0.667236,0.237139
0.00291457,0.627129,0.426613,1.27119e-06,0.778542,0.655109,0.778566,0.655209,0.238559
0.00301508,0.611022,0.412446,1.27825e-06,0.765019,0.643499,0.765044,0.643595,0.239825
0.00311558,0.597074,0.401291,1.28486e-06,0.754565,0.635388,0.754589,0.635481,0.239984
0.00321608,0.583383,0.390567,1.29147e-06,0.7445,0.627746,0.744525,0.627836,0.239928
0.00331658,0.569692,0.379843,1.29807e-06,0.734436,0.620104,0.734461,0.620192,0.239872
0.00341709,0.556001,0.369119,1.30467e-06,0.724371,0.612461,0.724397,0.612547,0.239815
0.00351759,0.54231,0.358395,1.31128e-06,0.714307,0.604819,0.714333,0.604902,0.239759
0.00361809,0.528619,0.347671,1.31788e-06,0.704243,0.597177,0.704269,0.597257,0.239703
0.00371859,0.514929,0.336946,1.32449e-06,0.694178,0.589535,0.694205,0.589612,0.239647
0.0038191,0.502794,0.328158,1.33066e-06,0.685852,0.583734,0.685878,0.58381,0.238972
0.0039196,0.491739,0.32053,1.33644e-06,0.678518,0.578889,0.678545,0.578962,0.238115
0.0040201,0.480684,0.312902,1.34221e-06,0.671185,0.574043,0.671211,0.574115,0.237259
0.0041206,0.469629,0.305274,1.34798e-06,0.663851,0.569198,0.663878,0.569268,0.236402
0.00422111,0.458574,0.297646,1.35376e-06,0.656518,0.564352,0.656544,0.56442,0.235546
0.00432161,0.447519,0.290018,1.35953e-06,0.649184,0.559507,0.649211,0.559573,0.234689
0.00442211,0.436464,0.282391,1.36531e-06,0.641851,0.554661,0.641877,0.554726,0.233833
0.00452261,0.42541,0.274763,1.37108e-06,0.634517,0.549816,0.634544,0.549878,0.232976
0.00462312,0.415072,0.267904,1.37659e-06,0.627832,0.545587,0.627859,0.545648,0.232018
0.00472362,0.406534,0.262619,1.38129e-06,0.622528,0.542496,0.622554,0.542555,0.231018
0.00482412,0.398078,0.257408,1.38596e-06,0.617287,0.539456,0.617313,0.539514,0.230016
0.00492462,0.389623,0.252196,1.39062e-06,0.612046,0.536417,0.612071,0.536474,0.229013
0.00502513,0.381167,0.246985,1.39529e-06,0.606805,0.533378,0.60683,0.533433,0.228011
0.00512563,0.372711,0.241773,1.39996e-06,0.601564,0.530338,0.601589,0.530393,0.227008
0.00522613,0.364255,0.236562,1.40462e-06,0.596323,0.527299,0.596347,0.527352,0.226006
0.00532663,0.3558,0.23135,1.40929e-06,0.591082,0.52426,0.591106,0.524311,0.225003
0.00542714,0.347344,0.226139,1.41396e-06,0.585841,0.521221,0.585864,0.521271,0.224001
0.00552764,0.339059,0.221081,1.41855e-06,0.580732,0.518291,0.580755,0.51834,0.222994
0.00562814,0.33234,0.217211,1.42243e-06,0.576714,0.516151,0.576737,0.516199,0.222052
0.00572864,0.326225,0.213753,1.42602e-06,0.573094,0.514269,0.573116,0.514316,0.221155
0.00582915,0.320111,0.210294,1.42961e-06,0.569474,0.512387,0.569495,0.512433,0.220259
0.00592965,0.313997,0.206835,1.43319e-06,0.565853,0.510506,0.565874,0.510551,0.219362
0.00603015,0.307883,0.203377,1.43678e-06,0.562233,0.508624,0.562254,0.508668,0.218466
0.00613065,0.301769,0.199918,1.44037e-06,0.558613,0.506742,0.558633,0.506786,0.217569
0.00623116,0.295655,0.196459,1.44396e-06,0.554993,0.504861,0.555012,0.504903,0.216672
0.00633166,0.289541,0.193001,1.44755e-06,0.551372,0.502979,0.551391,0.50302,0.215776
0.00643216,0.283427,0.189542,1.45113e-06,0.547752,0.501097,0.54777,0.501138,0.214879
0.00653266,0.277313,0.186083,1.45472e-06,0.544132,0.499216,0.54415,0.499255,0.213983
0.00663317,0.271797,0.183034,1.45805e-06,0.540908,0.497592,0.540925,0.497631,0.213131
0.00673367,0.267399,0.180674,1.46082e-06,0.538388,0.496378,0.538405,0.496416,0.212401
0.00683417,0.263174,0.178416,1.4635e-06,0.535976,0.495225,0.535992,0.495263,0.21169
0.00693467,0.258948,0.176158,1.46618e-06,0.533564,0.494072,0.53358,0.494109,0.21098
0.00703518,0.254722,0.1739,1.46885e-06,0.531153,0.492919,0.531168,0.492955,0.210269
0.00713568,0.250496,0.171642,1.47153e-06,0.528741,0.491766,0.528755,0.491802,0.209558
0.00723618,0.24627,0.169384,1.47421e-06,0.526329,0.490613,0.526343,0.490648,0.208848
0.00733668,0.242045,0.167126,1.47689e-06,0.523917,0.48946,0.523931,0.489494,0.208137
0.00743719,0.237819,0.164868,1.47956e-06,0.521505,0.488307,0.521518,0.488341,0.207426
0.00753769,0.233593,0.16261,1.48224e-06,0.519093,0.487154,0.519106,0.487187,0.206715
0.00763819,0.229367,0.160352,1.48492e-06,0.516682,0.486001,0.516694,0.486033,0.206005
0.00773869,0.225141,0.158094,1.4876e-06,0.51427,0.484848,0.514281,0.48488,0.205294
0.0078392,0.221572,0.156226,1.48996e-06,0.512269,0.483922,0.51228,0.483954,0.204662
0.0079397,0.21868,0.154729,1.49193e-06,0.510676,0.483202,0.510686,0.483233,0.204129
0.0080402,0.215844,0.153263,1.49386e-06,0.509117,0.482498,0.509127,0.482529,0.203605
0.0081407,0.213009,0.151797,1.49579e-06,0.507557,0.481795,0.507567,0.481825,0.20308
0.00824121,0.210173,0.150332,1.49772e-06,0.505998,0.481091,0.506008,0.481121,0.202555
0.00834171,0.207338,0.148866,1.49965e-06,0.504439,0.480388,0.504449,0.480417,0.20203
0.00844221,0.204502,0.1474,1.50158e-06,0.50288,0.479684,0.502889,0.479713,0.201506
0.00854271,0.201667,0.145934,1.50352e-06,0.501321,0.478981,0.50133,0.47901,0.200981
0.00864322,0.198831,0.144468,1.50545e-06,0.499762,0.478278,0.49977,0.478306,0.200456
0.00874372,0.195996,0.143002,1.50738e-06,0.498203,0.477574,0.498211,0.477602,0.199931
0.00884422,0.19316,0.141536,1.50931e-06,0.496644,0.476871,0.496651,0.476898,0.199407
0.00894472,0.190324,0.14007,1.51124e-06,0.495085,0.476167,0.495092,0.476194,0.198882
0.00904523,0.187489,0.138605,1.51317e-06,0.493526,0.475464,0.493532,0.47549,0.198357
0.00914573,0.185124,0.137395,1.51485e-06,0.492252,0.474901,0.492258,0.474928,0.197903
0.00924623,0.183184,0.136408,1.51624e-06,0.491225,0.474453,0.491231,0.474479,0.197521
0.00934673,0.181311,0.135455,1.51759e-06,0.490238,0.474024,0.490243,0.474049,0.197151
0.00944724,0.179439,0.134502,1.51893e-06,0.48925,0.473594,0.489255,0.473619,0.19678
0.00954774,0.177566,0.133549,1.52027e-06,0.488263,0.473164,0.488268,0.473189,0.19641
0.00964824,0.175694,0.132595,1.52162e-06,0.487275,0.472734,0.48728,0.472759,0.196039
0.00974874,0.173822,0.131642,1.52296e-06,0.486288,0.472304,0.486292,0.472329,0.195669
0.00984925,0.171949,0.130689,1.52431e-06,0.4853,0.471874,0.485304,0.471899,0.195298
0.00994975,0.170077,0.129736,1.52565e-06,0.484313,0.471445,0.484316,0.471469,0.194927
0.0100503,0.168204,0.128783,1.52699e-06,0.483325,0.471015,0.483329,0.471039,0.194557
0.0101508,0.166332,0.12783,1.52834e-06,0.482338,0.470585,0.482341,0.470609,0.194186
0.0102513,0.164459,0.126877,1.52968e-06,0.48135,0.470155,0.481353,0.470179,0.193816
0.0103518,0.162587,0.125924,1.53103e-06,0.480363,0.469725,0.480365,0.469749,0.193445
0.0104523,0.160714,0.124971,1.53237e-06,0.479375,0.469296,0.479377,0.469319,0.193075
0.0105528,0.159088,0.124146,1.53356e-06,0.478533,0.468932,0.478534,0.468955,0.192747
0.0106533,0.157751,0.123469,1.53455e-06,0.477853,0.468641,0.477855,0.468664,0.192472
0.0107538,0.156525,0.122848,1.53545e-06,0.477235,0.468377,0.477236,0.4684,0.192218
0.0108543,0.155299,0.122227,1.53635e-06,0.476617,0.468114,0.476618,0.468136,0.191964
0.0109548,0.154072,0.121605,1.53725e-06,0.475999,0.46785,0.476,0.467872,0.19171
0.0110553,0.152846,0.120984,1.53815e-06,0.475381,0.467586,0.475381,0.467608,0.191456
0.0111558,0.151619,0.120362,1.53905e-06,0.474763,0.467322,0.474763,0.467344,0.191202
0.0112563,0.150393,0.119741,1.53994e-06,0.474144,0.467058,0.474145,0.46708,0.190948
0.0113568,0.149166,0.119119,1.54084e-06,0.473526,0.466794,0.473526,0.466816,0.190694
0.0114573,0.14794,0.118498,1.54174e-06,0.472908,0.46653,0.472908,0.466552,0.19044
0.0115578,0.146713,0.117876,1.54264e-06,0.47229,0.466266,0.47229,0.466288,0.190186
0.0116583,0.145487,0.117255,1.54354e-06,0.471672,0.466003,0.471672,0.466024,0.189932
0.0117588,0.14426,0.116633,1.54444e-06,0.471054,0.465739,0.471053,0.46576,0.189678
0.0118593,0.143034,0.116012,1.54534e-06,0.470436,0.465475,0.470435,0.465496,0.189424
0.0119598,0.141807,0.11539,1.54624e-06,0.469818,0.465211,0.469817,0.465232,0.18917
0.0120603,0.140672,0.114815,1.54707e-06,0.469251,0.464969,0.469249,0.46499,0.188933
0.0121608,0.139731,0.114339,1.54778e-06,0.468792,0.464775,0.46879,0.464795,0.188734
0.0122613,0.138935,0.113935,1.54836e-06,0.468409,0.464613,0.468407,0.464633,0.188564
0.0123618,0.138139,0.113531,1.54894e-06,0.468025,0.46445,0.468024,0.464471,0.188394
0.0124623,0.137343,0.113127,1.54952e-06,0.467642,0.464288,0.46764,0.464308,0.188224
0.0125628,0.136547,0.112723,1.5501e-06,0.467259,0.464126,0.467257,0.464146,0.188054
0.0126633,0.135751,0.112319,1.55068e-06,0.466876,0.463964,0.466874,0.463984,0.187885
0.0127638,0.134955,0.111915,1.55126e-06,0.466493,0.463801,0.466491,0.463821,0.187715
0.0128643,0.134159,0.111511,1.55185e-06,0.46611,0.463639,0.466107,0.463659,0.187545
0.0129648,0.133363,0.111107,1.55243e-06,0.465726,0.463477,0.465724,0.463497,0.187375
0.0130653,0.132567,0.110703,1.55301e-06,0.465343,0.463315,0.465341,0.463334,0.187205
0.0131658,0.131771,0.110299,1.55359e-06,0.46496,0.463153,0.464957,0.463172,0.187035
0.0132663,0.130975,0.109896,1.55417e-06,0.464577,0.46299,0.464574,0.46301,0.186865
0.0133668,0.130179,0.109492,1.55475e-06,0.464194,0.462828,0.464191,0.462847,0.186696
0.0134673,0.129383,0.109088,1.55534e-06,0.463811,0.462666,0.463808,0.462685,0.186526
0.0135678,0.128587,0.108684,1.55592e-06,0.463428,0.462504,0.463424,0.462523,0.186356
0.0136683,0.127802,0.108285,1.55649e-06,0.46305,0.462344,0.463047,0.462363,0.186188
0.0137688,0.127175,0.107967,1.55695e-06,0.462757,0.46222,0.462753,0.462239,0.186053
0.0138693,0.126645,0.107697,1.55734e-06,0.462512,0.462116,0.462508,0.462135,0.185938
0.0139698,0.126141,0.10744,1.5577e-06,0.462279,0.462018,0.462275,0.462037,0.185828
0.0140704,0.125637,0.107183,1.55806e-06,0.462046,0.46192,0.462043,0.461938,0.185719
0.0141709,0.125133,0.106927,1.55842e-06,0.461814,0.461821,0.46181,0.46184,0.185609
0.0142714,0.124628,0.10667,1.55878e-06,0.461581,0.461723,0.461578,0.461742,0.1855
0.0143719,0.124124,0.106413,1.55914e-06,0.461349,0.461625,0.461345,0.461643,0.18539
0.0144724,0.12362,0.106156,1.5595e-06,0.461116,0.461526,0.461112,0.461545,0.185281
0.0145729,0.123116,0.1059,1.55986e-06,0.460884,0.461428,0.46088,0.461447,0.185171
0.0146734,0.122612,0.105643,1.56023e-06,0.460651,0.46133,0.460647,0.461348,0.185062
0.0147739,0.122108,0.105386,1.56059e-06,0.460419,0.461231,0.460414,0.46125,0.184952
0.0148744,0.121604,0.105129,1.56095e-06,0.460186,0.461133,0.460182,0.461151,0.184843
0.0149749,0.1211,0.104873,1.56131e-06,0.459953,0.461035,0.459949,0.461053,0.184733
0.0150754,0.120596,0.104616,1.56167e-06,0.459721,0.460937,0.459716,0.460955,0.184623
0.0151759,0.120091,0.104359,1.56203e-06,0.459488,0.460838,0.459484,0.460856,0.184514
0.0152764,0.119587,0.104102,1.56239e-06,0.459256,0.46074,0.459251,0.460758,0.184404
0.0153769,0.119083,0.103845,1.56275e-06,0.459023,0.460642,0.459019,0.46066,0.184295
0.0154774,0.118685,0.103642,1.56304e-06,0.458843,0.460566,0.458839,0.460584,0.184208
0.0155779,0.118349,0.103471,1.56327e-06,0.458693,0.460502,0.458689,0.46052,0.184134
0.0156784,0.118052,0.103319,1.56347e-06,0.458561,0.460446,0.458556,0.460464,0.184069
0.0157789,0.117755,0.103168,1.56367e-06,0.458429,0.46039,0.458424,0.460408,0.184004
0.0158794,0.117459,0.103016,1.56386e-06,0.458296,0.460334,0.458291,0.460352,0.183939
0.0159799,0.117162,0.102864,1.56406e-06,0.458164,0.460278,0.458159,0.460296,0.183874
0.0160804,0.116865,0.102712,1.56425e-06,0.458032,0.460222,0.458027,0.46024,0.183808
0.0161809,0.116568,0.10256,1.56445e-06,0.457899,0.460166,0.457894,0.460184,0.183743
0.0162814,0.116271,0.102409,1.56464e-06,0.457767,0.46011,0.457762,0.460128,0.183678
0.0163819,0.115974,0.102257,1.56484e-06,0.457635,0.460054,0.45763,0.460072,0.183613
0.0164824,0.115677,0.102105,1.56503e-06,0.457502,0.459998,0.457497,0.460016,0.183548
0.0165829,0.11538,0.101953,1.56523e-06,0.45737,0.459942,0.457365,0.459959,0.183483
0.0166834,0.115083,0.101801,1.56543e-06,0.457238,0.459886,0.457232,0.459903,0.183417
0.0167839,0.114786,0.10165,1.56562e-06,0.457105,0.45983,0.4571,0.459847,0.183352
0.0168844,0.11449,0.101498,1.56582e-06,0.456973,0.459774,0.456968,0.459791,0.183287
0.0169849,0.114193,0.101346,1.56601e-06,0.456841,0.459718,0.456835,0.459735,0.183222
0.0170854,0.113896,0.101194,1.56621e-06,0.456708,0.459662,0.456703,0.459679,0.183157
0.0171859,0.113607,0.101047,1.5664e-06,0.45658,0.459607,0.456575,0.459625,0.183093
0.0172864,0.113398,0.100939,1.56652e-06,0.456488,0.459568,0.456483,0.459586,0.183047
0.0173869,0.113239,0.100858,1.5666e-06,0.456419,0.459539,0.456414,0.459557,0.183012
0.0174874,0.113102,0.100788,1.56666e-06,0.456359,0.459514,0.456354,0.459531,0.182982
0.0175879,0.112964,0.100717,1.56672e-06,0.456299,0.459488,0.456294,0.459506,0.182952
0.0176884,0.112827,0.100647,1.56678e-06,0.456239,0.459463,0.456234,0.45948,0.182921
0.0177889,0.112689,0.100576,1.56684e-06,0.456179,0.459437,0.456174,0.459455,0.182891
0.0178894,0.112552,0.100506,1.5669e-06,0.456119,0.459412,0.456114,0.459429,0.18286
0.0179899,0.112414,0.100435,1.56696e-06,0.456059,0.459387,0.456054,0.459404,0.18283
0.0180905,0.112277,0.100365,1.56702e-06,0.455999,0.459361,0.455994,0.459378,0.1828
0.018191,0.112139,0.100294,1.56708e-06,0.455939,0.459336,0.455934,0.459353,0.182769
0.0182915,0.112002,0.100223,1.56714e-06,0.455879,0.45931,0.455874,0.459327,0.182739
0.018392,0.111864,0.100153,1.56721e-06,0.455819,0.459285,0.455814,0.459302,0.182709
0.0184925,0.111726,0.100082,1.56727e-06,0.455759,0.459259,0.455754,0.459277,0.182678
0.018593,0.111589,0.100012,1.56733e-06,0.455699,0.459234,0.455694,0.459251,0.182648
0.0186935,0.111451,0.0999412,1.56739e-06,0.455639,0.459208,0.455634,0.459226,0.182618
0.018794,0.111314,0.0998707,1.56745e-06,0.455579,0.459183,0.455573,0.4592,0.182587
0.0188945,0.111176,0.0998001,1.56751e-06,0.455519,0.459158,0.455513,0.459175,0.182557
0.018995,0.111039,0.0997296,1.56757e-06,0.455459,0.459132,0.455453,0.459149,0.182526
0.0190955,0.110964,0.0996912,1.56757e-06,0.455427,0.459118,0.455421,0.459136,0.18251
0.019196,0.110929,0.0996734,1.56757e-06,0.455412,0.459112,0.455406,0.459129,0.182502
0.0192965,0.110929,0.0996734,1.56757e-06,0.455412,0.459112,0.455406,0.459129,0.182502
0.019397,0.110929,0.0996734,1.56757e-06,0.455412,0.459112,0.455406,0.459129,0.182502
0.0194975,0.110929,0.0996734,1.56757e-06,0.455412,0.459112,0.455406,0.459129,0.182502
0.019598,0.110929,0.0996734,1.56757e-06,0.455412,0.459112,0.455406,0.459129,0.182502
0.0196985,0.110929,0.0996734,1.56757e-06,0.455412,0.459112,0.455406,0.459129,0.182502
0.019799,0.110929,0.0996734,1.56757e-06,0.455412,0.459112,0.455406,0.459129,0.182502
0.0198995,0.110929,0.0996734,1.56757e-06,0.455412,0.459112,0.455406,0.459129,0.182502
0.02,0.110929,0.0996734,1.56757e-06,0.455412,0.459112,0.455406,0.459129,0.182502
