y,Theta,ThetaMean,k1,k1Mean,k2,k2Mean,v2
0,1.02661,1.01863,0.177102,0.178824,1e-12,1e-12,1e-12
0.000100503,1.02755,1.01948,0.277165,0.279285,0.202577,0.20397,0.00747227
0.000201005,1.02941,1.02118,0.476295,0.479207,0.470165,0.473018,0.0200368
0.000301508,1.03276,1.02423,0.833483,0.83781,0.833488,0.837823,0.0405903
0.00040201,1.02987,1.02094,1.03999,1.04432,1.04,1.04434,0.0601167
0.000502513,1.02573,1.01638,1.21876,1.22282,1.21877,1.22284,0.0796328
0.000603015,1.01511,1.00524,1.23935,1.24166,1.23936,1.24169,0.0980711
0.000703518,1.00317,0.992788,1.23594,1.23684,1.23595,1.23686,0.113284
0.00080402,0.990354,0.979447,1.22532,1.22489,1.22532,1.22491,0.127825
0.000904523,0.976032,0.964566,1.20218,1.20059,1.20218,1.2006,0.141205
0.00100503,0.961995,0.950011,1.17132,1.16885,1.17133,1.16886,0.152067
0.00110553,0.946827,0.934346,1.1412,1.1381,1.14121,1.13811,0.161115
0.00120603,0.93166,0.91868,1.11108,1.10736,1.11108,1.10737,0.170162
0.00130653,0.91572,0.902247,1.08095,1.07673,1.08095,1.07674,0.178396
0.00140704,0.900517,0.8866,1.05352,1.04896,1.05353,1.04897,0.185155
0.00150754,0.885328,0.871021,1.02881,1.02404,1.02881,1.02405,0.190738
0.00160804,0.869971,0.855286,1.00453,0.999578,1.00453,0.999588,0.196075
0.00170854,0.854614,0.83955,0.980246,0.975122,0.980247,0.975131,0.201412
0.00180905,0.838608,0.823206,0.957644,0.952467,0.957644,0.952476,0.205798
0.00190955,0.82424,0.808545,0.937823,0.932623,0.937823,0.932631,0.20953
0.00201005,0.80978,0.793851,0.919614,0.914462,0.919614,0.91447,0.212525
0.00211055,0.795269,0.779117,0.901664,0.896573,0.901664,0.896581,0.215389
0.00221106,0.780759,0.764383,0.883715,0.878685,0.883714,0.878692,0.218253
0.00231156,0.766111,0.74954,0.866452,0.861519,0.866451,0.861526,0.220769
0.00241206,0.751872,0.735152,0.85078,0.845987,0.85078,0.845994,0.222728
0.00251256,0.738708,0.721858,0.836439,0.831781,0.836439,0.831788,0.224457
0.00261307,0.725506,0.708587,0.823082,0.818597,0.823081,0.818604,0.225621
0.00271357,0.712304,0.695315,0.809724,0.805414,0.809724,0.80542,0.226785
0.00281407,0.699102,0.682043,0.796367,0.79223,0.796366,0.792236,0.227949
0.00291457,0.685891,0.668776,0.783221,0.779266,0.783221,0.779272,0.228991
0.00301508,0.672642,0.655527,0.770986,0.767249,0.770986,0.767255,0.229509
0.00311558,0.660718,0.643603,0.759975,0.756434,0.759975,0.756439,0.229975
0.00321608,0.648912,0.631832,0.749428,0.746094,0.749427,0.746099,0.230118
0.00331658,0.637158,0.62014,0.739218,0.736102,0.739218,0.736108,0.229998
0.00341709,0.625403,0.608448,0.729009,0.726111,0.729009,0.726116,0.229878
0.00351759,0.613648,0.596756,0.7188,0.716119,0.7188,0.716124,0.229758
0.00361809,0.601898,0.585071,0.708618,0.706156,0.708618,0.706161,0.229616
0.00371859,0.590253,0.573552,0.699158,0.696935,0.699157,0.696939,0.228912
0.0038191,0.5793,0.562717,0.690259,0.688262,0.690259,0.688266,0.22825
0.0039196,0.568765,0.552297,0.681706,0.679925,0.681705,0.67993,0.227605
0.0040201,0.558523,0.542211,0.673662,0.672107,0.673662,0.672111,0.22663
0.0041206,0.548281,0.532126,0.665619,0.664289,0.665619,0.664292,0.225655
0.00422111,0.538039,0.522041,0.657576,0.65647,0.657575,0.656474,0.22468
0.00432161,0.527797,0.511956,0.649532,0.648652,0.649532,0.648655,0.223705
0.00442211,0.517555,0.501871,0.641489,0.640833,0.641489,0.640837,0.222729
0.00452261,0.507575,0.492086,0.633905,0.63348,0.633904,0.633484,0.221456
0.00462312,0.497862,0.482567,0.626557,0.62636,0.626557,0.626363,0.220174
0.00472362,0.488759,0.473647,0.619671,0.619686,0.619671,0.61969,0.218971
0.00482412,0.479863,0.464945,0.61297,0.613196,0.61297,0.6132,0.21771
0.00492462,0.471215,0.456502,0.60649,0.606924,0.60649,0.606927,0.216378
0.00502513,0.462567,0.448059,0.600009,0.600652,0.600009,0.600655,0.215046
0.00512563,0.453919,0.439616,0.593528,0.59438,0.593528,0.594383,0.213714
0.00522613,0.445271,0.431173,0.587048,0.588108,0.587048,0.58811,0.212382
0.00532663,0.436623,0.42273,0.580567,0.581835,0.580567,0.581838,0.211049
0.00542714,0.428266,0.414592,0.574347,0.57582,0.574347,0.575823,0.209634
0.00552764,0.420072,0.406626,0.568273,0.56995,0.568273,0.569952,0.208173
0.00562814,0.412378,0.399145,0.562569,0.564437,0.562569,0.564439,0.2068
0.00572864,0.404792,0.391768,0.556945,0.559001,0.556945,0.559003,0.205447
0.00582915,0.397618,0.384809,0.551605,0.553839,0.551605,0.553841,0.204079
0.00592965,0.390561,0.377965,0.546344,0.548753,0.546344,0.548755,0.202706
0.00603015,0.383503,0.371122,0.541084,0.543667,0.541083,0.543669,0.201334
0.00613065,0.376446,0.364278,0.535823,0.538581,0.535823,0.538583,0.199962
0.00623116,0.369388,0.357435,0.530563,0.533495,0.530562,0.533496,0.19859
0.00633166,0.36233,0.350592,0.525302,0.528409,0.525302,0.52841,0.197218
0.00643216,0.355405,0.343881,0.520133,0.52341,0.520132,0.523412,0.195841
0.00653266,0.348876,0.33757,0.515238,0.518675,0.515238,0.518677,0.194451
0.00663317,0.342434,0.331343,0.510408,0.514003,0.510408,0.514004,0.193079
0.00673367,0.336321,0.325434,0.505825,0.509569,0.505824,0.509571,0.191777
0.00683417,0.330208,0.319525,0.501241,0.505135,0.501241,0.505137,0.190476
0.00693467,0.324604,0.314116,0.496993,0.501019,0.496993,0.501021,0.189218
0.00703518,0.319034,0.308742,0.492767,0.496925,0.492767,0.496926,0.187963
0.00713568,0.313465,0.303368,0.488542,0.492831,0.488542,0.492832,0.186707
0.00723618,0.307895,0.297993,0.484316,0.488736,0.484316,0.488738,0.185452
0.00733668,0.302326,0.292619,0.480091,0.484642,0.480091,0.484643,0.184197
0.00743719,0.296756,0.287245,0.475865,0.480548,0.475865,0.480549,0.182942
0.00753769,0.291187,0.281871,0.47164,0.476454,0.47164,0.476455,0.181687
0.00763819,0.285978,0.276851,0.467654,0.472586,0.467654,0.472587,0.180464
0.00773869,0.280953,0.272013,0.463789,0.468833,0.463789,0.468834,0.179257
0.0078392,0.276033,0.267275,0.460006,0.465159,0.460006,0.46516,0.178074
0.0079397,0.271277,0.262695,0.456348,0.461607,0.456348,0.461608,0.176932
0.0080402,0.266521,0.258115,0.452691,0.458055,0.45269,0.458056,0.175789
0.0081407,0.262218,0.253976,0.449346,0.454802,0.449346,0.454803,0.174719
0.00824121,0.257974,0.249894,0.446044,0.451589,0.446043,0.45159,0.173659
0.00834171,0.25373,0.245813,0.442741,0.448375,0.44274,0.448376,0.172599
0.00844221,0.249486,0.241731,0.439438,0.445161,0.439438,0.445162,0.171539
0.00854271,0.245242,0.23765,0.436135,0.441948,0.436135,0.441948,0.170479
0.00864322,0.240999,0.233568,0.432832,0.438734,0.432832,0.438735,0.169419
0.00874372,0.236755,0.229487,0.429529,0.43552,0.429529,0.435521,0.168359
0.00884422,0.232511,0.225405,0.426226,0.432307,0.426226,0.432307,0.167299
0.00894472,0.22871,0.221754,0.423232,0.429387,0.423232,0.429387,0.166311
0.00904523,0.22498,0.218172,0.420288,0.426514,0.420287,0.426514,0.165335
0.00914573,0.221308,0.214645,0.417389,0.423686,0.417389,0.423686,0.164374
0.00924623,0.217742,0.211221,0.414574,0.42094,0.414574,0.42094,0.16344
0.00934673,0.214176,0.207796,0.411759,0.418193,0.411759,0.418194,0.162507
0.00944724,0.210888,0.204641,0.409151,0.415647,0.409151,0.415647,0.161633
0.00954774,0.20777,0.20165,0.406668,0.413222,0.406668,0.413222,0.160795
0.00964824,0.204652,0.198659,0.404186,0.410797,0.404186,0.410797,0.159957
0.00974874,0.201533,0.195669,0.401703,0.408372,0.401703,0.408372,0.15912
0.00984925,0.198415,0.192678,0.39922,0.405947,0.39922,0.405947,0.158282
0.00994975,0.195297,0.189687,0.396738,0.403522,0.396738,0.403522,0.157444
0.0100503,0.192179,0.186696,0.394255,0.401097,0.394255,0.401097,0.156606
0.0101508,0.18906,0.183705,0.391773,0.398672,0.391772,0.398672,0.155768
0.0102513,0.185942,0.180714,0.38929,0.396248,0.38929,0.396247,0.15493
0.0103518,0.183214,0.178101,0.387099,0.394104,0.387099,0.394104,0.154176
0.0104523,0.180544,0.175545,0.384952,0.392004,0.384952,0.392004,0.153435
0.0105528,0.177888,0.173,0.382816,0.389913,0.382816,0.389913,0.152697
0.0106533,0.175313,0.170535,0.380745,0.387887,0.380745,0.387887,0.151982
0.0107538,0.172738,0.168069,0.378674,0.385861,0.378674,0.385861,0.151267
0.0108543,0.17023,0.165668,0.376656,0.383886,0.376656,0.383886,0.150568
0.0109548,0.168022,0.163557,0.374873,0.382142,0.374873,0.382142,0.149944
0.0110553,0.165813,0.161446,0.373089,0.380398,0.373089,0.380398,0.14932
0.0111558,0.163604,0.159334,0.371306,0.378654,0.371306,0.378653,0.148696
0.0112563,0.161396,0.157223,0.369523,0.37691,0.369523,0.376909,0.148072
0.0113568,0.159187,0.155112,0.367739,0.375165,0.367739,0.375165,0.147448
0.0114573,0.156978,0.153001,0.365956,0.373421,0.365956,0.373421,0.146824
0.0115578,0.154769,0.150889,0.364172,0.371677,0.364172,0.371677,0.1462
0.0116583,0.152561,0.148778,0.362389,0.369933,0.362389,0.369932,0.145576
0.0117588,0.150352,0.146667,0.360606,0.368189,0.360606,0.368188,0.144952
0.0118593,0.148415,0.144818,0.359037,0.366655,0.359037,0.366655,0.144396
0.0119598,0.146574,0.143062,0.357545,0.365196,0.357545,0.365195,0.143864
0.0120603,0.144732,0.141306,0.356052,0.363736,0.356052,0.363736,0.143332
0.0121608,0.142931,0.139588,0.354592,0.362308,0.354591,0.362308,0.142812
0.0122613,0.14114,0.137881,0.35314,0.360889,0.35314,0.360889,0.142295
0.0123618,0.139349,0.136173,0.351688,0.35947,0.351688,0.359469,0.141778
0.0124623,0.137742,0.134643,0.350386,0.358198,0.350386,0.358197,0.14131
0.0125628,0.136236,0.13321,0.349165,0.357006,0.349165,0.357006,0.140871
0.0126633,0.13473,0.131778,0.347944,0.355815,0.347944,0.355814,0.140431
0.0127638,0.133224,0.130345,0.346723,0.354624,0.346723,0.354623,0.139992
0.0128643,0.131718,0.128912,0.345503,0.353432,0.345503,0.353432,0.139552
0.0129648,0.130212,0.127479,0.344282,0.352241,0.344282,0.35224,0.139113
0.0130653,0.128706,0.126047,0.343061,0.35105,0.343061,0.351049,0.138673
0.0131658,0.1272,0.124614,0.34184,0.349858,0.34184,0.349858,0.138234
0.0132663,0.125694,0.123181,0.34062,0.348667,0.340619,0.348666,0.137794
0.0133668,0.124188,0.121749,0.339399,0.347476,0.339399,0.347475,0.137355
0.0134673,0.122849,0.120477,0.338314,0.346419,0.338314,0.346418,0.136961
0.0135678,0.121629,0.119319,0.337327,0.345458,0.337327,0.345457,0.1366
0.0136683,0.120408,0.118162,0.33634,0.344496,0.33634,0.344496,0.136239
0.0137688,0.119199,0.117016,0.335361,0.343544,0.335361,0.343543,0.135881
0.0138693,0.118004,0.115882,0.334394,0.342602,0.334394,0.342602,0.135527
0.0139698,0.116808,0.114749,0.333427,0.341661,0.333427,0.34166,0.135173
0.0140704,0.115642,0.113643,0.332483,0.340743,0.332483,0.340742,0.134828
0.0141709,0.114663,0.112717,0.331694,0.339976,0.331694,0.339975,0.134537
0.0142714,0.113684,0.111792,0.330904,0.339209,0.330904,0.339208,0.134246
0.0143719,0.112706,0.110866,0.330114,0.338441,0.330114,0.338441,0.133954
0.0144724,0.111727,0.10994,0.329324,0.337674,0.329324,0.337673,0.133663
0.0145729,0.110748,0.109014,0.328534,0.336907,0.328534,0.336906,0.133372
0.0146734,0.10977,0.108089,0.327744,0.33614,0.327744,0.336139,0.133081
0.0147739,0.108791,0.107163,0.326955,0.335373,0.326955,0.335372,0.13279
0.0148744,0.107812,0.106237,0.326165,0.334606,0.326165,0.334605,0.132498
0.0149749,0.106834,0.105311,0.325375,0.333839,0.325375,0.333838,0.132207
0.0150754,0.105855,0.104386,0.324585,0.333072,0.324585,0.333071,0.131916
0.0151759,0.104996,0.103575,0.323894,0.332402,0.323894,0.332401,0.13166
0.0152764,0.104235,0.102857,0.323283,0.331811,0.323283,0.33181,0.131431
0.0153769,0.103473,0.10214,0.322673,0.33122,0.322673,0.331219,0.131203
0.0154774,0.102715,0.101425,0.322064,0.330631,0.322064,0.33063,0.130976
0.0155779,0.101964,0.100717,0.321462,0.330048,0.321462,0.330047,0.130751
0.0156784,0.101213,0.10001,0.32086,0.329466,0.32086,0.329465,0.130526
0.0157789,0.100463,0.0993023,0.320258,0.328883,0.320258,0.328882,0.130301
0.0158794,0.0998493,0.098725,0.319767,0.328409,0.319767,0.328408,0.130116
0.0159799,0.0992668,0.098177,0.319301,0.327959,0.319301,0.327958,0.129941
0.0160804,0.0986843,0.097629,0.318835,0.327509,0.318835,0.327508,0.129766
0.0161809,0.0981018,0.097081,0.318369,0.327059,0.318369,0.327058,0.129591
0.0162814,0.0975193,0.096533,0.317903,0.326609,0.317903,0.326608,0.129416
0.0163819,0.0969367,0.095985,0.317437,0.326159,0.317437,0.326158,0.129241
0.0164824,0.0963542,0.095437,0.316971,0.325709,0.316971,0.325708,0.129066
0.0165829,0.0957717,0.094889,0.316505,0.325259,0.316505,0.325258,0.128891
0.0166834,0.0951892,0.094341,0.316039,0.324809,0.316039,0.324808,0.128716
0.0167839,0.0946067,0.093793,0.315573,0.324359,0.315573,0.324358,0.128541
0.0168844,0.0940242,0.093245,0.315108,0.323909,0.315108,0.323908,0.128366
0.0169849,0.0935836,0.0928315,0.314757,0.323571,0.314757,0.32357,0.128233
0.0170854,0.0931695,0.0924432,0.314429,0.323255,0.314429,0.323254,0.128109
0.0171859,0.0927555,0.092055,0.3141,0.322939,0.3141,0.322938,0.127984
0.0172864,0.0923428,0.091668,0.313773,0.322624,0.313773,0.322622,0.12786
0.0173869,0.0919322,0.0912829,0.313447,0.32231,0.313447,0.322309,0.127736
0.0174874,0.0915216,0.0908979,0.313121,0.321996,0.313121,0.321995,0.127612
0.0175879,0.0911109,0.0905128,0.312795,0.321683,0.312795,0.321681,0.127488
0.0176884,0.0908272,0.0902469,0.312571,0.321466,0.312571,0.321465,0.127403
0.0177889,0.0905565,0.0899932,0.312356,0.32126,0.312356,0.321259,0.127321
0.0178894,0.0902857,0.0897394,0.312142,0.321054,0.312142,0.321053,0.12724
0.0179899,0.0900149,0.0894857,0.311927,0.320848,0.311927,0.320846,0.127158
0.0180905,0.0897441,0.0892319,0.311713,0.320641,0.311713,0.32064,0.127077
0.018191,0.0894734,0.0889782,0.311499,0.320435,0.311499,0.320434,0.126995
0.0182915,0.0892026,0.0887245,0.311284,0.320229,0.311284,0.320228,0.126914
0.018392,0.0889318,0.0884707,0.31107,0.320023,0.31107,0.320022,0.126832
0.0184925,0.0886611,0.088217,0.310856,0.319817,0.310856,0.319815,0.126751
0.018593,0.0883903,0.0879632,0.310641,0.31961,0.310641,0.319609,0.126669
0.0186935,0.0881195,0.0877095,0.310427,0.319404,0.310427,0.319403,0.126588
0.018794,0.0879452,0.0875463,0.31029,0.319272,0.31029,0.319271,0.126535
0.0188945,0.0878144,0.087424,0.310187,0.319174,0.310187,0.319173,0.126496
0.018995,0.0876836,0.0873017,0.310085,0.319076,0.310085,0.319074,0.126457
0.0190955,0.0875529,0.0871795,0.309983,0.318977,0.309983,0.318976,0.126418
0.019196,0.0874225,0.0870575,0.309881,0.318879,0.309881,0.318878,0.126379
0.0192965,0.0872921,0.0869356,0.309779,0.318781,0.309779,0.31878,0.126339
0.019397,0.0871617,0.0868136,0.309676,0.318683,0.309676,0.318682,0.1263
0.0194975,0.0871164,0.0867712,0.309642,0.31865,0.309642,0.318649,0.126287
0.019598,0.0871167,0.0867715,0.309643,0.318651,0.309643,0.31865,0.126288
0.0196985,0.087117,0.0867718,0.309645,0.318652,0.309645,0.318651,0.126288
0.019799,0.0871173,0.086772,0.309646,0.318654,0.309646,0.318652,0.126289
0.0198995,0.0871176,0.0867723,0.309648,0.318655,0.309648,0.318654,0.126289
0.02,0.0871179,0.0867726,0.309649,0.318656,0.309649,0.318655,0.12629
