y,Theta,ThetaMean,alpha1,k1,k1Mean,k2,k2Mean
0,50.685,4.80462,7.24529e-07,0.447983,0.286203,0.448013,0.286307
0.000100503,50.6397,4.8047,7.24152e-07,0.447983,0.286203,0.448013,0.286307
0.000201005,50.5945,4.80478,7.23774e-07,0.447983,0.286203,0.448013,0.286307
0.000301508,50.5492,4.80486,7.23396e-07,0.447983,0.286203,0.448013,0.286307
0.00040201,51.2124,4.84272,7.2416e-07,0.457855,0.296954,0.457885,0.29706
0.000502513,52.6709,4.92293,7.2612e-07,0.478834,0.319797,0.478863,0.319909
0.000603015,54.6001,5.02817,7.28762e-07,0.506393,0.349805,0.506421,0.349925
0.000703518,56.5293,5.13341,7.31403e-07,0.533951,0.379813,0.533978,0.379941
0.00080402,58.3607,5.23393,7.3386e-07,0.560268,0.408469,0.560294,0.408604
0.000904523,59.8806,5.31944,7.35728e-07,0.582632,0.432821,0.582657,0.432963
0.00100503,61.4005,5.40495,7.37597e-07,0.604996,0.457173,0.605021,0.457321
0.00110553,62.9204,5.49046,7.39465e-07,0.62736,0.481525,0.627384,0.481679
0.00120603,64.4403,5.57597,7.41333e-07,0.649724,0.505877,0.649747,0.506037
0.00130653,66.6785,5.70075,7.42057e-07,0.661219,0.51574,0.661241,0.515903
0.00140704,69.2455,5.84332,7.42083e-07,0.667705,0.518927,0.667728,0.519092
0.00150754,72.2294,6.00842,7.41216e-07,0.66784,0.513648,0.667863,0.513812
0.00160804,75.2133,6.17352,7.40349e-07,0.667975,0.508369,0.667999,0.508532
0.00170854,78.1972,6.33863,7.39481e-07,0.668109,0.50309,0.668134,0.503252
0.00180905,81.1016,6.49929,7.3862e-07,0.668241,0.497953,0.668266,0.498115
0.00190955,83.6103,6.63791,7.3779e-07,0.668354,0.493521,0.66838,0.493682
0.00201005,86.119,6.77652,7.36961e-07,0.668468,0.489089,0.668494,0.48925
0.00211055,88.6277,6.91513,7.36131e-07,0.668581,0.484657,0.668608,0.484817
0.00221106,91.1365,7.05375,7.35301e-07,0.668695,0.480225,0.668722,0.480385
0.00231156,93.6452,7.19236,7.34472e-07,0.668809,0.475794,0.668836,0.475953
0.00241206,96.6609,7.37348,7.34757e-07,0.667546,0.471191,0.667574,0.47135
0.00251256,99.8796,7.5716,7.35489e-07,0.665732,0.466521,0.665761,0.466679
0.00261307,103.7,7.81247,7.3711e-07,0.66251,0.461677,0.662539,0.461834
0.00271357,107.741,8.06906,7.39057e-07,0.658769,0.456768,0.658799,0.456924
0.00281407,111.782,8.32564,7.41005e-07,0.655028,0.45186,0.655058,0.452015
0.00291457,115.824,8.58223,7.42953e-07,0.651287,0.446951,0.651318,0.447105
0.00301508,119.865,8.83881,7.44901e-07,0.647546,0.442043,0.647578,0.442196
0.00311558,123.773,9.0862,7.46747e-07,0.64394,0.43731,0.643971,0.437462
0.00321608,127.333,9.30965,7.4833e-07,0.640682,0.433035,0.640714,0.433185
0.00331658,130.893,9.53311,7.49914e-07,0.637423,0.428759,0.637456,0.428909
0.00341709,134.453,9.75657,7.51497e-07,0.634165,0.424483,0.634198,0.424632
0.00351759,138.013,9.98002,7.53081e-07,0.630907,0.420208,0.630941,0.420356
0.00361809,141.574,10.2035,7.54664e-07,0.627649,0.415932,0.627683,0.416079
0.00371859,145.134,10.4269,7.56247e-07,0.624391,0.411657,0.624425,0.411803
0.0038191,148.969,10.6878,7.57564e-07,0.620861,0.407384,0.620896,0.40753
0.0039196,153.181,11.0002,7.58515e-07,0.616956,0.403116,0.616992,0.403261
0.0040201,157.394,11.3127,7.59465e-07,0.613052,0.398848,0.613087,0.398992
0.0041206,162.457,11.7063,7.5973e-07,0.608548,0.394588,0.608584,0.39473
0.00422111,167.586,12.1063,7.59943e-07,0.603997,0.390327,0.604033,0.390468
0.00432161,172.714,12.5063,7.60155e-07,0.599446,0.386067,0.599482,0.386207
0.00442211,177.843,12.9063,7.60367e-07,0.594895,0.381807,0.594932,0.381945
0.00452261,182.972,13.3063,7.60579e-07,0.590344,0.377546,0.590381,0.377684
0.00462312,188.101,13.7063,7.60791e-07,0.585793,0.373286,0.58583,0.373422
0.00472362,193.202,14.1035,7.61004e-07,0.581273,0.369055,0.581311,0.36919
0.00482412,197.931,14.4646,7.61233e-07,0.577166,0.36521,0.577204,0.365344
0.00492462,202.66,14.8256,7.61462e-07,0.573058,0.361365,0.573096,0.361498
0.00502513,207.389,15.1866,7.6169e-07,0.568951,0.35752,0.568989,0.357652
0.00512563,212.119,15.5477,7.61919e-07,0.564843,0.353674,0.564882,0.353806
0.00522613,216.848,15.9087,7.62148e-07,0.560736,0.349829,0.560775,0.349959
0.00532663,221.577,16.2697,7.62377e-07,0.556628,0.345984,0.556668,0.346113
0.00542714,226.307,16.6308,7.62605e-07,0.552521,0.342139,0.55256,0.342267
0.00552764,231.036,16.9918,7.62834e-07,0.548413,0.338294,0.548453,0.338421
0.00562814,236.455,17.4499,7.62113e-07,0.544181,0.334587,0.544221,0.334712
0.00572864,242.264,17.963,7.60854e-07,0.539877,0.330957,0.539918,0.331082
0.00582915,248.074,18.4761,7.59596e-07,0.535574,0.327327,0.535614,0.327451
0.00592965,254.492,19.0752,7.57634e-07,0.531158,0.323821,0.531199,0.323944
0.00603015,261.367,19.7386,7.55147e-07,0.526658,0.320407,0.526699,0.320528
0.00613065,268.241,20.4021,7.5266e-07,0.522159,0.316993,0.522199,0.317113
0.00623116,275.116,21.0655,7.50172e-07,0.517659,0.313579,0.5177,0.313698
0.00633166,281.99,21.7289,7.47685e-07,0.513159,0.310164,0.5132,0.310283
0.00643216,288.864,22.3923,7.45198e-07,0.508659,0.30675,0.5087,0.306868
0.00653266,295.739,23.0557,7.42711e-07,0.50416,0.303336,0.504201,0.303452
0.00663317,302.613,23.7192,7.40224e-07,0.49966,0.299922,0.499701,0.300037
0.00673367,309.423,24.3761,7.37765e-07,0.495204,0.296541,0.495245,0.296655
0.00683417,315.842,24.9934,7.35479e-07,0.491017,0.293364,0.491058,0.293477
0.00693467,322.261,25.6106,7.33192e-07,0.48683,0.290188,0.486871,0.290299
0.00703518,328.68,26.2279,7.30906e-07,0.482643,0.287011,0.482684,0.287121
0.00713568,335.099,26.8451,7.2862e-07,0.478456,0.283834,0.478497,0.283944
0.00723618,341.518,27.4624,7.26333e-07,0.474269,0.280657,0.47431,0.280766
0.00733668,347.937,28.0796,7.24047e-07,0.470082,0.27748,0.470123,0.277588
0.00743719,354.356,28.6969,7.21761e-07,0.465895,0.274303,0.465936,0.27441
0.00753769,360.775,29.3142,7.19474e-07,0.461708,0.271126,0.461749,0.271232
0.00763819,367.194,29.9314,7.17188e-07,0.457521,0.267949,0.457562,0.268054
0.00773869,373.673,30.5628,7.14989e-07,0.453333,0.264782,0.453375,0.264886
0.0078392,381.294,31.4629,7.14445e-07,0.449129,0.261795,0.44917,0.261898
0.0079397,388.915,32.363,7.13902e-07,0.444924,0.258808,0.444966,0.25891
0.0080402,396.535,33.263,7.13358e-07,0.44072,0.255821,0.440762,0.255922
0.0081407,404.666,34.2701,7.13537e-07,0.436509,0.252907,0.436551,0.253006
0.00824121,413.625,35.4509,7.1489e-07,0.432287,0.25011,0.432328,0.250208
0.00834171,422.583,36.6317,7.16243e-07,0.428064,0.247313,0.428106,0.247411
0.00844221,431.542,37.8126,7.17596e-07,0.423842,0.244516,0.423884,0.244613
0.00854271,440.501,38.9934,7.18949e-07,0.41962,0.241719,0.419661,0.241815
0.00864322,449.46,40.1742,7.20301e-07,0.415398,0.238922,0.415439,0.239017
0.00874372,458.419,41.3551,7.21654e-07,0.411176,0.236125,0.411217,0.236219
0.00884422,467.377,42.5359,7.23007e-07,0.406953,0.233328,0.406994,0.233421
0.00894472,476.336,43.7167,7.2436e-07,0.402731,0.230531,0.402772,0.230623
0.00904523,485.295,44.8976,7.25713e-07,0.398509,0.227734,0.398549,0.227825
0.00914573,494.107,46.0622,7.27035e-07,0.394344,0.224976,0.394385,0.225065
0.00924623,502.561,47.1875,7.28284e-07,0.390319,0.222309,0.39036,0.222398
0.00934673,511.014,48.3127,7.29532e-07,0.386294,0.219643,0.386335,0.219731
0.00944724,519.468,49.4379,7.3078e-07,0.38227,0.216977,0.38231,0.217064
0.00954774,527.921,50.5632,7.32028e-07,0.378245,0.214311,0.378285,0.214397
0.00964824,536.375,51.6884,7.33276e-07,0.37422,0.211645,0.37426,0.21173
0.00974874,544.828,52.8136,7.34525e-07,0.370195,0.208979,0.370235,0.209063
0.00984925,553.282,53.9389,7.35773e-07,0.36617,0.206313,0.36621,0.206396
0.00994975,561.735,55.0641,7.37021e-07,0.362145,0.203647,0.362185,0.203729
0.0100503,570.189,56.1893,7.38269e-07,0.358121,0.200981,0.358161,0.201061
0.0101508,578.642,57.3146,7.39518e-07,0.354096,0.198314,0.354136,0.198394
0.0102513,587.096,58.4398,7.40766e-07,0.350071,0.195648,0.350111,0.195727
0.0103518,596.575,59.9251,7.40638e-07,0.346062,0.193058,0.346101,0.193136
0.0104523,606.731,61.6479,7.39602e-07,0.342062,0.190518,0.342101,0.190596
0.0105528,616.886,63.3708,7.38566e-07,0.338063,0.187979,0.338102,0.188055
0.0106533,627.042,65.0936,7.3753e-07,0.334063,0.185439,0.334102,0.185514
0.0107538,637.908,67.0261,7.35694e-07,0.330073,0.182943,0.330111,0.183017
0.0108543,650.082,69.3442,7.32387e-07,0.326098,0.18053,0.326137,0.180603
0.0109548,662.256,71.6622,7.2908e-07,0.322124,0.178116,0.322162,0.178188
0.0110553,674.429,73.9803,7.25774e-07,0.31815,0.175702,0.318187,0.175774
0.0111558,686.603,76.2984,7.22467e-07,0.314175,0.173289,0.314213,0.173359
0.0112563,698.776,78.6164,7.19161e-07,0.310201,0.170875,0.310238,0.170944
0.0113568,710.95,80.9345,7.15854e-07,0.306227,0.168461,0.306263,0.16853
0.0114573,723.124,83.2526,7.12547e-07,0.302252,0.166047,0.302289,0.166115
0.0115578,735.297,85.5706,7.09241e-07,0.298278,0.163634,0.298314,0.163701
0.0116583,747.471,87.8887,7.05934e-07,0.294303,0.16122,0.29434,0.161286
0.0117588,759.644,90.2068,7.02627e-07,0.290329,0.158806,0.290365,0.158871
0.0118593,771.818,92.5248,6.99321e-07,0.286355,0.156393,0.28639,0.156457
0.0119598,783.675,94.7976,6.96023e-07,0.282458,0.154026,0.282493,0.154089
0.0120603,795.373,97.0474,6.92731e-07,0.2786,0.151683,0.278635,0.151745
0.0121608,807.07,99.2973,6.89438e-07,0.274743,0.14934,0.274778,0.149401
0.0122613,818.768,101.547,6.86145e-07,0.270885,0.146997,0.27092,0.147057
0.0123618,830.465,103.797,6.82852e-07,0.267028,0.144654,0.267062,0.144714
0.0124623,842.162,106.047,6.79559e-07,0.26317,0.142311,0.263204,0.14237
0.0125628,853.86,108.297,6.76266e-07,0.259312,0.139968,0.259346,0.140026
0.0126633,865.557,110.547,6.72974e-07,0.255455,0.137625,0.255488,0.137682
0.0127638,877.255,112.796,6.69681e-07,0.251597,0.135282,0.25163,0.135338
0.0128643,888.952,115.046,6.66388e-07,0.247739,0.132939,0.247772,0.132994
0.0129648,900.65,117.296,6.63095e-07,0.243882,0.130596,0.243914,0.13065
0.0130653,912.347,119.546,6.59802e-07,0.240024,0.128253,0.240057,0.128306
0.0131658,924.045,121.796,6.5651e-07,0.236167,0.12591,0.236199,0.125962
0.0132663,940.952,124.876,6.54589e-07,0.232349,0.123653,0.232381,0.123704
0.0133668,960.99,128.454,6.53493e-07,0.228555,0.121448,0.228587,0.121498
0.0134673,981.028,132.032,6.52397e-07,0.224762,0.119242,0.224793,0.119291
0.0135678,1001.07,135.611,6.51301e-07,0.220968,0.117036,0.220999,0.117085
0.0136683,1021.1,139.189,6.50205e-07,0.217174,0.114831,0.217205,0.114878
0.0137688,1050.22,143.938,6.50984e-07,0.213438,0.112747,0.213468,0.112793
0.0138693,1080.55,148.842,6.52013e-07,0.209709,0.110678,0.209739,0.110724
0.0139698,1110.87,153.746,6.53041e-07,0.20598,0.10861,0.20601,0.108655
0.0140704,1141.19,158.65,6.54069e-07,0.202251,0.106542,0.20228,0.106586
0.0141709,1171.52,163.555,6.55098e-07,0.198521,0.104474,0.198551,0.104517
0.0142714,1201.84,168.459,6.56126e-07,0.194792,0.102406,0.194822,0.102448
0.0143719,1232.16,173.363,6.57154e-07,0.191063,0.100337,0.191092,0.100379
0.0144724,1262.49,178.267,6.58183e-07,0.187334,0.0982693,0.187363,0.09831
0.0145729,1292.81,183.171,6.59211e-07,0.183605,0.0962011,0.183634,0.096241
0.0146734,1323.13,188.075,6.60239e-07,0.179876,0.094133,0.179904,0.0941719
0.0147739,1353.46,192.979,6.61267e-07,0.176147,0.0920648,0.176175,0.0921029
0.0148744,1383.78,197.884,6.62296e-07,0.172418,0.0899966,0.172446,0.0900338
0.0149749,1414.1,202.788,6.63324e-07,0.168689,0.0879284,0.168716,0.0879648
0.0150754,1443.93,207.627,6.64297e-07,0.16501,0.0858881,0.165037,0.0859236
0.0151759,1473.66,212.455,6.65259e-07,0.161341,0.0838529,0.161368,0.0838875
0.0152764,1503.4,217.282,6.66222e-07,0.157672,0.0818178,0.157699,0.0818515
0.0153769,1533.13,222.11,6.67184e-07,0.154003,0.0797826,0.154029,0.0798155
0.0154774,1562.87,226.937,6.68147e-07,0.150334,0.0777474,0.15036,0.0777794
0.0155779,1592.6,231.765,6.6911e-07,0.146665,0.0757122,0.14669,0.0757434
0.0156784,1622.34,236.593,6.70072e-07,0.142996,0.0736771,0.143021,0.0737074
0.0157789,1652.07,241.42,6.71035e-07,0.139327,0.0716419,0.139352,0.0716713
0.0158794,1681.81,246.248,6.71997e-07,0.135657,0.0696067,0.135682,0.0696353
0.0159799,1711.54,251.075,6.7296e-07,0.131988,0.0675716,0.132013,0.0675993
0.0160804,1741.28,255.903,6.73922e-07,0.128319,0.0655364,0.128344,0.0655632
0.0161809,1771.01,260.73,6.74885e-07,0.12465,0.0635012,0.124674,0.0635272
0.0162814,1800.75,265.558,6.75847e-07,0.120981,0.061466,0.121005,0.0614912
0.0163819,1830.48,270.385,6.7681e-07,0.117312,0.0594309,0.117335,0.0594552
0.0164824,1851.59,275.997,6.83155e-07,0.114358,0.0578613,0.114381,0.0578849
0.0165829,1871.67,281.703,6.90148e-07,0.11149,0.0563477,0.111513,0.0563706
0.0166834,1891.74,287.408,6.97141e-07,0.108623,0.0548341,0.108645,0.0548564
0.0167839,1911.81,293.114,7.04134e-07,0.105755,0.0533206,0.105778,0.0533422
0.0168844,1931.89,298.82,7.11126e-07,0.102887,0.051807,0.10291,0.0518279
0.0169849,1947.85,305.243,7.22819e-07,0.100677,0.0507209,0.100699,0.0507413
0.0170854,1962.92,311.824,7.35547e-07,0.0986108,0.049729,0.0986327,0.0497489
0.0171859,1977.99,318.404,7.48275e-07,0.096545,0.048737,0.0965666,0.0487564
0.0172864,1993.05,324.985,7.61003e-07,0.0944791,0.047745,0.0945005,0.0477639
0.0173869,2008.12,331.566,7.73731e-07,0.0924132,0.046753,0.0924344,0.0467715
0.0174874,2023.18,338.147,7.86458e-07,0.0903474,0.0457611,0.0903683,0.045779
0.0175879,2038.25,344.727,7.99186e-07,0.0882815,0.0447691,0.0883022,0.0447866
0.0176884,2053.31,351.308,8.11914e-07,0.0862156,0.0437771,0.0862361,0.0437941
0.0177889,2068.38,357.889,8.24642e-07,0.0841498,0.0427852,0.08417,0.0428016
0.0178894,2083.44,364.47,8.3737e-07,0.0820839,0.0417932,0.0821039,0.0418092
0.0179899,2098.51,371.05,8.50097e-07,0.080018,0.0408012,0.0800378,0.0408167
0.0180905,2113.58,377.631,8.62825e-07,0.0779522,0.0398092,0.0779717,0.0398243
0.018191,2128.64,384.212,8.75553e-07,0.0758863,0.0388173,0.0759056,0.0388318
0.0182915,2143.71,390.792,8.88281e-07,0.0738205,0.0378253,0.0738395,0.0378393
0.018392,2159.27,397.348,9.00831e-07,0.0717638,0.0368377,0.0717826,0.0368513
0.0184925,2174.9,403.9,9.13354e-07,0.0697085,0.0358507,0.0697271,0.0358638
0.018593,2190.54,410.451,9.25877e-07,0.0676532,0.0348638,0.0676715,0.0348764
0.0186935,2206.17,417.003,9.384e-07,0.0655979,0.0338768,0.065616,0.0338889
0.018794,2221.81,423.555,9.50923e-07,0.0635426,0.0328899,0.0635604,0.0329015
0.0188945,2237.44,430.107,9.63446e-07,0.0614873,0.031903,0.0615049,0.0319141
0.018995,2253.08,436.658,9.75969e-07,0.059432,0.030916,0.0594494,0.0309266
0.0190955,2268.72,443.21,9.88492e-07,0.0573767,0.0299291,0.0573938,0.0299392
0.019196,2284.35,449.762,1.00102e-06,0.0553214,0.0289421,0.0553383,0.0289518
0.0192965,2299.99,456.313,1.01354e-06,0.0532661,0.0279552,0.0532827,0.0279643
0.019397,2315.62,462.865,1.02606e-06,0.0512108,0.0269682,0.0512272,0.0269769
0.0194975,2331.26,469.417,1.03858e-06,0.0491555,0.0259813,0.0491717,0.0259895
0.019598,2346.89,475.969,1.05111e-06,0.0471001,0.0249943,0.0471161,0.025002
0.0196985,2362.53,482.52,1.06363e-06,0.0450448,0.0240074,0.0450606,0.0240146
0.019799,2369.24,485.193,1.06867e-06,0.0442122,0.0236077,0.0442278,0.0236148
0.0198995,2369.89,485.226,1.06862e-06,0.0442112,0.0236076,0.0442268,0.0236146
0.02,2370.53,485.26,1.06857e-06,0.0442102,0.0236074,0.0442258,0.0236145
