y,Theta,ThetaMean,alpha1,k1,k1Mean,k2,k2Mean,v2
0,3.08066,1236.39,3.3335e-07,0.170428,0.188111,1e-12,1e-12,1e-12
0.000100503,3.0785,1236.42,3.32779e-07,0.342884,0.370369,0.244889,0.262204,0.0109649
0.000201005,3.0761,1236.45,3.32144e-07,0.534397,0.572765,0.502281,0.537318,0.0229002
0.000301508,3.07083,1236.49,3.31312e-07,0.755748,0.805732,0.75576,0.805757,0.038624
0.00040201,3.06024,1236.55,3.30403e-07,0.929618,0.986227,0.929641,0.986278,0.0574363
0.000502513,3.04966,1236.62,3.29494e-07,1.10349,1.16672,1.10352,1.1668,0.0762487
0.000603015,3.03591,1236.69,3.28756e-07,1.1933,1.25761,1.19334,1.25769,0.0936631
0.000703518,3.01782,1236.79,3.28305e-07,1.18564,1.24594,1.18567,1.24601,0.10803
0.00080402,2.99973,1236.88,3.27854e-07,1.17797,1.23427,1.178,1.23432,0.122397
0.000904523,2.98164,1236.97,3.27402e-07,1.17031,1.2226,1.17033,1.22264,0.136764
0.00100503,2.96124,1237.09,3.27169e-07,1.14273,1.19256,1.14274,1.19259,0.146778
0.00110553,2.94054,1237.21,3.26954e-07,1.11516,1.16286,1.11517,1.16289,0.155997
0.00120603,2.91985,1237.33,3.26739e-07,1.0876,1.13316,1.0876,1.13318,0.165215
0.00130653,2.89915,1237.45,3.26523e-07,1.06003,1.10346,1.06003,1.10348,0.174433
0.00140704,2.87806,1237.58,3.26346e-07,1.03586,1.07817,1.03587,1.07818,0.181117
0.00150754,2.85693,1237.73,3.26181e-07,1.01365,1.0552,1.01365,1.05521,0.186809
0.00160804,2.83581,1237.87,3.26015e-07,0.991434,1.03223,0.991437,1.03224,0.1925
0.00170854,2.81468,1238.02,3.2585e-07,0.96922,1.00926,0.969223,1.00927,0.198192
0.00180905,2.79344,1238.17,3.25685e-07,0.947191,0.98651,0.947193,0.986521,0.203785
0.00190955,2.77302,1238.33,3.25542e-07,0.930274,0.969506,0.930276,0.969516,0.207373
0.00201005,2.75263,1238.49,3.25401e-07,0.914067,0.953295,0.914069,0.953304,0.210671
0.00211055,2.73223,1238.66,3.25261e-07,0.89786,0.937084,0.897862,0.937093,0.21397
0.00221106,2.71184,1238.82,3.25121e-07,0.881653,0.920874,0.881654,0.920882,0.217269
0.00231156,2.69145,1238.99,3.2498e-07,0.865446,0.904663,0.865447,0.90467,0.220568
0.00241206,2.67146,1239.16,3.24847e-07,0.85085,0.890222,0.850852,0.890229,0.223255
0.00251256,2.65239,1239.34,3.24725e-07,0.838967,0.878733,0.838969,0.87874,0.224862
0.00261307,2.63333,1239.53,3.24603e-07,0.827084,0.867244,0.827086,0.86725,0.226468
0.00271357,2.61426,1239.71,3.24482e-07,0.815201,0.855755,0.815202,0.85576,0.228075
0.00281407,2.59519,1239.89,3.2436e-07,0.803318,0.844266,0.803319,0.844271,0.229682
0.00291457,2.57613,1240.07,3.24238e-07,0.791435,0.832777,0.791436,0.832781,0.231289
0.00301508,2.55699,1240.26,3.24117e-07,0.779773,0.821542,0.779774,0.821546,0.232766
0.00311558,2.53947,1240.45,3.24008e-07,0.770512,0.812855,0.770513,0.812858,0.233252
0.00321608,2.52201,1240.64,3.23899e-07,0.761518,0.804468,0.761519,0.804471,0.233546
0.00331658,2.50454,1240.83,3.2379e-07,0.752524,0.796082,0.752525,0.796085,0.233839
0.00341709,2.48708,1241.03,3.23681e-07,0.74353,0.787695,0.743531,0.787698,0.234133
0.00351759,2.46962,1241.22,3.23572e-07,0.734537,0.779309,0.734538,0.779311,0.234427
0.00361809,2.45215,1241.41,3.23463e-07,0.725543,0.770922,0.725544,0.770924,0.23472
0.00371859,2.43469,1241.6,3.23354e-07,0.716549,0.762536,0.71655,0.762537,0.235014
0.0038191,2.41823,1241.8,3.23251e-07,0.708797,0.755475,0.708798,0.755476,0.234685
0.0039196,2.40247,1242,3.23151e-07,0.70169,0.749105,0.701691,0.749106,0.23406
0.0040201,2.3867,1242.19,3.2305e-07,0.694584,0.742735,0.694585,0.742736,0.233434
0.0041206,2.37093,1242.39,3.2295e-07,0.687477,0.736365,0.687478,0.736365,0.232809
0.00422111,2.35516,1242.58,3.22849e-07,0.68037,0.729995,0.680371,0.729995,0.232183
0.00432161,2.3394,1242.78,3.22749e-07,0.673264,0.723625,0.673265,0.723625,0.231558
0.00442211,2.32363,1242.98,3.22649e-07,0.666157,0.717255,0.666158,0.717254,0.230933
0.00452261,2.30786,1243.17,3.22548e-07,0.65905,0.710885,0.659051,0.710884,0.230307
0.00462312,2.29253,1243.37,3.22449e-07,0.652348,0.704952,0.652348,0.704951,0.229487
0.00472362,2.27842,1243.56,3.22355e-07,0.646451,0.699879,0.646452,0.699878,0.228411
0.00482412,2.26434,1243.75,3.2226e-07,0.640577,0.694836,0.640578,0.694835,0.227318
0.00492462,2.25026,1243.94,3.22165e-07,0.634703,0.689793,0.634704,0.689791,0.226226
0.00502513,2.23618,1244.13,3.22071e-07,0.628829,0.68475,0.628829,0.684748,0.225133
0.00512563,2.22209,1244.32,3.21976e-07,0.622954,0.679707,0.622955,0.679705,0.22404
0.00522613,2.20801,1244.51,3.21881e-07,0.61708,0.674663,0.617081,0.674661,0.222948
0.00532663,2.19393,1244.7,3.21786e-07,0.611206,0.66962,0.611207,0.669618,0.221855
0.00542714,2.17984,1244.9,3.21692e-07,0.605332,0.664577,0.605333,0.664574,0.220762
0.00552764,2.16581,1245.09,3.21597e-07,0.599504,0.659595,0.599505,0.659592,0.219635
0.00562814,2.15296,1245.27,3.21506e-07,0.594284,0.655257,0.594285,0.655254,0.218394
0.00572864,2.14049,1245.44,3.21415e-07,0.589227,0.65111,0.589227,0.651107,0.217112
0.00582915,2.12802,1245.62,3.21325e-07,0.584169,0.646964,0.58417,0.64696,0.21583
0.00592965,2.11555,1245.8,3.21235e-07,0.579111,0.642817,0.579112,0.642814,0.214548
0.00603015,2.10308,1245.97,3.21144e-07,0.574053,0.638671,0.574054,0.638667,0.213265
0.00613065,2.09061,1246.15,3.21054e-07,0.568995,0.634524,0.568996,0.63452,0.211983
0.00623116,2.07814,1246.33,3.20963e-07,0.563938,0.630378,0.563938,0.630374,0.210701
0.00633166,2.06567,1246.5,3.20873e-07,0.55888,0.626231,0.55888,0.626227,0.209419
0.00643216,2.0532,1246.68,3.20783e-07,0.553822,0.622085,0.553823,0.622081,0.208137
0.00653266,2.04073,1246.86,3.20692e-07,0.548764,0.617938,0.548765,0.617934,0.206855
0.00663317,2.02863,1247.03,3.20602e-07,0.543864,0.61398,0.543865,0.613976,0.20553
0.00673367,2.01757,1247.19,3.20516e-07,0.539344,0.610429,0.539345,0.610424,0.2042
0.00683417,2.00661,1247.34,3.2043e-07,0.534849,0.606919,0.53485,0.606914,0.202858
0.00693467,1.99565,1247.49,3.20344e-07,0.530354,0.603409,0.530355,0.603403,0.201515
0.00703518,1.98469,1247.64,3.20258e-07,0.525859,0.599898,0.52586,0.599893,0.200173
0.00713568,1.97374,1247.8,3.20172e-07,0.521365,0.596388,0.521365,0.596382,0.198831
0.00723618,1.96278,1247.95,3.20085e-07,0.51687,0.592877,0.51687,0.592872,0.197488
0.00733668,1.95182,1248.1,3.19999e-07,0.512375,0.589367,0.512375,0.589361,0.196146
0.00743719,1.94086,1248.26,3.19913e-07,0.50788,0.585857,0.50788,0.585851,0.194804
0.00753769,1.9299,1248.41,3.19827e-07,0.503385,0.582346,0.503385,0.58234,0.193461
0.00763819,1.91894,1248.56,3.1974e-07,0.49889,0.578836,0.49889,0.57883,0.192119
0.00773869,1.90799,1248.72,3.19654e-07,0.494395,0.575326,0.494395,0.575319,0.190777
0.0078392,1.89759,1248.86,3.19569e-07,0.490076,0.572025,0.490077,0.572018,0.189422
0.0079397,1.88799,1248.98,3.19488e-07,0.485996,0.568986,0.485996,0.568979,0.188091
0.0080402,1.87844,1249.1,3.19406e-07,0.481925,0.565963,0.481925,0.565956,0.186759
0.0081407,1.86889,1249.22,3.19325e-07,0.477854,0.56294,0.477855,0.562933,0.185426
0.00824121,1.85934,1249.34,3.19243e-07,0.473784,0.559917,0.473784,0.55991,0.184094
0.00834171,1.84979,1249.46,3.19162e-07,0.469713,0.556894,0.469713,0.556886,0.182762
0.00844221,1.84024,1249.58,3.1908e-07,0.465643,0.553871,0.465643,0.553863,0.18143
0.00854271,1.83069,1249.7,3.18999e-07,0.461572,0.550848,0.461572,0.55084,0.180097
0.00864322,1.82114,1249.82,3.18917e-07,0.457501,0.547825,0.457502,0.547817,0.178765
0.00874372,1.81159,1249.95,3.18836e-07,0.453431,0.544802,0.453431,0.544794,0.177433
0.00884422,1.80204,1250.07,3.18754e-07,0.44936,0.541779,0.44936,0.541771,0.1761
0.00894472,1.79249,1250.19,3.18673e-07,0.445289,0.538756,0.44529,0.538748,0.174768
0.00904523,1.78294,1250.31,3.18591e-07,0.441219,0.535733,0.441219,0.535725,0.173436
0.00914573,1.77391,1250.41,3.18512e-07,0.437287,0.532878,0.437287,0.53287,0.172112
0.00924623,1.76559,1250.5,3.18435e-07,0.43357,0.530243,0.43357,0.530234,0.170837
0.00934673,1.75736,1250.59,3.18359e-07,0.429873,0.527636,0.429874,0.527627,0.169564
0.00944724,1.74913,1250.68,3.18284e-07,0.426177,0.525028,0.426178,0.525019,0.168292
0.00954774,1.74089,1250.77,3.18208e-07,0.422481,0.522421,0.422481,0.522412,0.16702
0.00964824,1.73266,1250.86,3.18132e-07,0.418785,0.519814,0.418785,0.519804,0.165747
0.00974874,1.72443,1250.95,3.18056e-07,0.415089,0.517206,0.415089,0.517197,0.164475
0.00984925,1.7162,1251.04,3.1798e-07,0.411393,0.514599,0.411393,0.514589,0.163203
0.00994975,1.70797,1251.12,3.17904e-07,0.407697,0.511991,0.407697,0.511982,0.16193
0.0100503,1.69974,1251.21,3.17828e-07,0.404001,0.509384,0.404001,0.509374,0.160658
0.0101508,1.69151,1251.3,3.17752e-07,0.400304,0.506777,0.400305,0.506767,0.159386
0.0102513,1.68328,1251.39,3.17677e-07,0.396608,0.504169,0.396608,0.504159,0.158114
0.0103518,1.67505,1251.48,3.17601e-07,0.392912,0.501562,0.392912,0.501552,0.156841
0.0104523,1.66682,1251.57,3.17525e-07,0.389216,0.498955,0.389216,0.498944,0.155569
0.0105528,1.65894,1251.65,3.1745e-07,0.385612,0.496458,0.385612,0.496448,0.154313
0.0106533,1.65174,1251.71,3.1738e-07,0.382242,0.494173,0.382242,0.494163,0.153127
0.0107538,1.64476,1251.78,3.17311e-07,0.378946,0.491965,0.378946,0.491954,0.151963
0.0108543,1.63779,1251.84,3.17243e-07,0.375651,0.489756,0.375651,0.489745,0.150799
0.0109548,1.63081,1251.9,3.17174e-07,0.372355,0.487547,0.372355,0.487537,0.149635
0.0110553,1.62383,1251.97,3.17105e-07,0.369059,0.485339,0.369059,0.485328,0.148471
0.0111558,1.61686,1252.03,3.17036e-07,0.365764,0.48313,0.365764,0.483119,0.147307
0.0112563,1.60988,1252.09,3.16967e-07,0.362468,0.480921,0.362468,0.48091,0.146143
0.0113568,1.6029,1252.16,3.16898e-07,0.359173,0.478713,0.359172,0.478701,0.144979
0.0114573,1.59593,1252.22,3.16829e-07,0.355877,0.476504,0.355877,0.476492,0.143815
0.0115578,1.58895,1252.28,3.16761e-07,0.352581,0.474295,0.352581,0.474284,0.142651
0.0116583,1.58198,1252.35,3.16692e-07,0.349286,0.472086,0.349285,0.472075,0.141487
0.0117588,1.575,1252.41,3.16623e-07,0.34599,0.469878,0.34599,0.469866,0.140323
0.0118593,1.56802,1252.48,3.16554e-07,0.342694,0.467669,0.342694,0.467657,0.139159
0.0119598,1.56105,1252.54,3.16485e-07,0.339399,0.46546,0.339399,0.465448,0.137995
0.0120603,1.55426,1252.6,3.16418e-07,0.336165,0.463315,0.336165,0.463303,0.136849
0.0121608,1.54802,1252.65,3.16354e-07,0.333139,0.461348,0.333139,0.461336,0.13577
0.0122613,1.54229,1252.69,3.16294e-07,0.330333,0.459557,0.330332,0.459545,0.134768
0.0123618,1.53657,1252.74,3.16234e-07,0.327526,0.457766,0.327526,0.457754,0.133766
0.0124623,1.53084,1252.78,3.16174e-07,0.324719,0.455976,0.324719,0.455963,0.132764
0.0125628,1.52511,1252.83,3.16114e-07,0.321913,0.454185,0.321912,0.454172,0.131761
0.0126633,1.51938,1252.87,3.16054e-07,0.319106,0.452394,0.319106,0.452382,0.130759
0.0127638,1.51366,1252.92,3.15994e-07,0.316299,0.450603,0.316299,0.450591,0.129757
0.0128643,1.50793,1252.96,3.15934e-07,0.313493,0.448813,0.313492,0.4488,0.128755
0.0129648,1.5022,1253,3.15874e-07,0.310686,0.447022,0.310686,0.447009,0.127752
0.0130653,1.49647,1253.05,3.15814e-07,0.307879,0.445231,0.307879,0.445218,0.12675
0.0131658,1.49075,1253.09,3.15754e-07,0.305073,0.443441,0.305072,0.443427,0.125748
0.0132663,1.48502,1253.14,3.15694e-07,0.302266,0.44165,0.302265,0.441637,0.124745
0.0133668,1.47929,1253.18,3.15634e-07,0.299459,0.439859,0.299459,0.439846,0.123743
0.0134673,1.47356,1253.23,3.15573e-07,0.296653,0.438068,0.296652,0.438055,0.122741
0.0135678,1.46783,1253.27,3.15513e-07,0.293846,0.436278,0.293845,0.436264,0.121739
0.0136683,1.46214,1253.31,3.15454e-07,0.291056,0.4345,0.291055,0.434487,0.120742
0.0137688,1.45703,1253.35,3.15398e-07,0.288511,0.43292,0.288511,0.432906,0.119831
0.0138693,1.4525,1253.38,3.15347e-07,0.286242,0.431527,0.286242,0.431513,0.119019
0.0139698,1.44812,1253.41,3.15297e-07,0.284044,0.430182,0.284043,0.430168,0.118231
0.0140704,1.44375,1253.44,3.15247e-07,0.281845,0.428837,0.281844,0.428823,0.117444
0.0141709,1.43937,1253.47,3.15197e-07,0.279646,0.427491,0.279646,0.427478,0.116657
0.0142714,1.43499,1253.5,3.15147e-07,0.277447,0.426146,0.277447,0.426132,0.11587
0.0143719,1.43061,1253.53,3.15097e-07,0.275248,0.424801,0.275248,0.424787,0.115083
0.0144724,1.42624,1253.56,3.15047e-07,0.27305,0.423456,0.273049,0.423442,0.114295
0.0145729,1.42186,1253.59,3.14997e-07,0.270851,0.422111,0.27085,0.422097,0.113508
0.0146734,1.41748,1253.62,3.14947e-07,0.268652,0.420766,0.268651,0.420752,0.112721
0.0147739,1.4131,1253.65,3.14897e-07,0.266453,0.419421,0.266453,0.419407,0.111934
0.0148744,1.40873,1253.68,3.14847e-07,0.264254,0.418076,0.264254,0.418062,0.111147
0.0149749,1.40435,1253.71,3.14797e-07,0.262056,0.416731,0.262055,0.416717,0.11036
0.0150754,1.39997,1253.74,3.14747e-07,0.259857,0.415386,0.259856,0.415372,0.109572
0.0151759,1.39559,1253.77,3.14697e-07,0.257658,0.414041,0.257657,0.414027,0.108785
0.0152764,1.39122,1253.8,3.14647e-07,0.255459,0.412696,0.255459,0.412682,0.107998
0.0153769,1.38684,1253.83,3.14597e-07,0.25326,0.411351,0.25326,0.411336,0.107211
0.0154774,1.38309,1253.85,3.14552e-07,0.251355,0.410207,0.251354,0.410192,0.106529
0.0155779,1.37985,1253.87,3.14511e-07,0.249702,0.409221,0.249701,0.409206,0.105938
0.0156784,1.37694,1253.89,3.14473e-07,0.248208,0.408333,0.248208,0.408318,0.105404
0.0157789,1.37402,1253.91,3.14436e-07,0.246715,0.407446,0.246714,0.407431,0.10487
0.0158794,1.3711,1253.93,3.14398e-07,0.245222,0.406558,0.245221,0.406543,0.104336
0.0159799,1.36818,1253.95,3.14361e-07,0.243728,0.405671,0.243728,0.405655,0.103803
0.0160804,1.36527,1253.97,3.14323e-07,0.242235,0.404783,0.242234,0.404768,0.103269
0.0161809,1.36235,1253.99,3.14285e-07,0.240742,0.403896,0.240741,0.40388,0.102735
0.0162814,1.35943,1254,3.14248e-07,0.239249,0.403008,0.239248,0.402993,0.102201
0.0163819,1.35652,1254.02,3.1421e-07,0.237755,0.40212,0.237755,0.402105,0.101667
0.0164824,1.3536,1254.04,3.14173e-07,0.236262,0.401233,0.236261,0.401217,0.101134
0.0165829,1.35068,1254.06,3.14135e-07,0.234769,0.400345,0.234768,0.40033,0.1006
0.0166834,1.34776,1254.08,3.14097e-07,0.233276,0.399458,0.233275,0.399442,0.100066
0.0167839,1.34485,1254.1,3.1406e-07,0.231782,0.39857,0.231781,0.398555,0.0995324
0.0168844,1.34193,1254.12,3.14022e-07,0.230289,0.397683,0.230288,0.397667,0.0989986
0.0169849,1.33901,1254.13,3.13985e-07,0.228796,0.396795,0.228795,0.396779,0.0984648
0.0170854,1.3361,1254.15,3.13947e-07,0.227302,0.395908,0.227302,0.395892,0.0979311
0.0171859,1.33325,1254.17,3.1391e-07,0.225845,0.395042,0.225844,0.395026,0.0974103
0.0172864,1.33107,1254.18,3.1388e-07,0.224719,0.394381,0.224718,0.394365,0.0970084
0.0173869,1.32942,1254.2,3.13856e-07,0.223864,0.39388,0.223863,0.393864,0.0967036
0.0174874,1.32797,1254.2,3.13835e-07,0.223117,0.393443,0.223116,0.393427,0.0964372
0.0175879,1.32653,1254.21,3.13815e-07,0.22237,0.393005,0.22237,0.392989,0.0961709
0.0176884,1.32509,1254.22,3.13794e-07,0.221623,0.392568,0.221623,0.392552,0.0959045
0.0177889,1.32364,1254.23,3.13773e-07,0.220877,0.39213,0.220876,0.392114,0.0956382
0.0178894,1.3222,1254.24,3.13752e-07,0.22013,0.391693,0.220129,0.391677,0.0953718
0.0179899,1.32075,1254.25,3.13731e-07,0.219383,0.391255,0.219382,0.391239,0.0951055
0.0180905,1.31931,1254.26,3.1371e-07,0.218636,0.390818,0.218635,0.390802,0.0948391
0.018191,1.31787,1254.27,3.1369e-07,0.217889,0.39038,0.217888,0.390364,0.0945728
0.0182915,1.31642,1254.28,3.13669e-07,0.217142,0.389943,0.217141,0.389927,0.0943064
0.018392,1.31498,1254.29,3.13648e-07,0.216395,0.389505,0.216394,0.389489,0.0940401
0.0184925,1.31353,1254.3,3.13627e-07,0.215648,0.389068,0.215647,0.389052,0.0937737
0.018593,1.31209,1254.31,3.13606e-07,0.214901,0.38863,0.2149,0.388614,0.0935073
0.0186935,1.31065,1254.32,3.13586e-07,0.214154,0.388193,0.214153,0.388177,0.093241
0.018794,1.3092,1254.32,3.13565e-07,0.213407,0.387755,0.213406,0.387739,0.0929746
0.0188945,1.30776,1254.33,3.13544e-07,0.21266,0.387318,0.212659,0.387302,0.0927083
0.018995,1.30631,1254.34,3.13523e-07,0.211914,0.38688,0.211913,0.386864,0.0924419
0.0190955,1.30551,1254.35,3.13511e-07,0.211497,0.386638,0.211496,0.386621,0.0922937
0.019196,1.30514,1254.35,3.13505e-07,0.211303,0.386524,0.211302,0.386508,0.0922244
0.0192965,1.30514,1254.35,3.13505e-07,0.211303,0.386524,0.211302,0.386508,0.0922244
0.019397,1.30514,1254.35,3.13505e-07,0.211303,0.386524,0.211302,0.386508,0.0922244
0.0194975,1.30514,1254.35,3.13504e-07,0.211303,0.386524,0.211302,0.386508,0.0922244
0.019598,1.30514,1254.35,3.13504e-07,0.211303,0.386524,0.211302,0.386508,0.0922244
0.0196985,1.30514,1254.36,3.13504e-07,0.211303,0.386524,0.211302,0.386508,0.0922244
0.019799,1.30514,1254.36,3.13504e-07,0.211303,0.386524,0.211302,0.386508,0.0922244
0.0198995,1.30514,1254.36,3.13504e-07,0.211303,0.386524,0.211302,0.386508,0.0922244
0.02,1.30514,1254.36,3.13504e-07,0.211303,0.386524,0.211302,0.386508,0.0922244
